Cn    ONCVPSP-4.0.1  r_core=   1.15172   1.15172   1.15172   1.15172
112.0000     52.0000      230615    zatom,zion,pspd
8      11   3     4   600     0    pspcod,pspxc,lmax,lloc,mmax,r2well
5.99000000  2.50000000  0.00000000    rchrg fchrg qchrg
3     2     2     2     0    nproj
1     1           extension_switch
0                         1.6242345343346E+01 -7.0865420685699E+00  1.6214092569964E+00
1  0.0000000000000E+00  1.6121967982841E-08  3.0408164874984E-09  6.6818215876951E-08
2  1.0000000000000E-02  1.7990020929685E-01  6.7863467165547E-02  3.0063413990680E-02
3  2.0000000000000E-02  3.5820154347378E-01  1.3561089444059E-01  5.9489384609277E-02
4  3.0000000000000E-02  5.3331843136447E-01  2.0312591667532E-01  8.7642694790462E-02
5  4.0000000000000E-02  7.0369188533836E-01  2.7029154039766E-01  1.1389289095989E-01
6  5.0000000000000E-02  8.6780272748842E-01  3.3698988430434E-01  1.3761742316246E-01
7  6.0000000000000E-02  1.0241847243539E+00  4.0310198301747E-01  1.5820564344264E-01
8  7.0000000000000E-02  1.1714375791629E+00  4.6850767142963E-01  1.7506386477518E-01
9  8.0000000000000E-02  1.3082397144566E+00  5.3308556391932E-01  1.8762161602564E-01
10  9.0000000000000E-02  1.4333607595730E+00  5.9671313914315E-01  1.9533915090250E-01
11  1.0000000000000E-01  1.5456736378773E+00  6.5926693713749E-01  1.9771618425634E-01
12  1.1000000000000E-01  1.6441661290015E+00  7.2062287124253E-01  1.9430174137872E-01
13  1.2000000000000E-01  1.7279517629125E+00  7.8065665305698E-01  1.8470491933151E-01
14  1.3000000000000E-01  1.7962798865785E+00  8.3924432440463E-01  1.6860627798434E-01
15  1.4000000000000E-01  1.8485447315109E+00  8.9626288630542E-01  1.4576950638085E-01
16  1.5000000000000E-01  1.8842933025636E+00  9.5159101134182E-01  1.1605295096804E-01
17  1.6000000000000E-01  1.9032319059618E+00  1.0051098227312E+00  7.9420549276192E-02
18  1.7000000000000E-01  1.9052311382901E+00  1.0567037209666E+00  3.5951688342292E-02
19  1.8000000000000E-01  1.8903291685348E+00  1.1062612371629E+00 -1.4150496720472E-02
20  1.9000000000000E-01  1.8587331624269E+00  1.1536758912937E+00 -7.0552851204168E-02
21  2.0000000000000E-01  1.8108187221679E+00  1.1988470333625E+00 -1.3278838485995E-01
22  2.1000000000000E-01  1.7471272447515E+00  1.2416806462059E+00 -2.0025528101910E-01
23  2.2000000000000E-01  1.6683611378616E+00  1.2820900900448E+00 -2.7221902273741E-01
24  2.3000000000000E-01  1.5753768728053E+00  1.3199967710164E+00 -3.4781783451269E-01
25  2.4000000000000E-01  1.4691758980020E+00  1.3553307186327E+00 -4.2607153223922E-01
26  2.5000000000000E-01  1.3508934828428E+00  1.3880310603187E+00 -5.0589375968336E-01
27  2.6000000000000E-01  1.2217856088247E+00  1.4180463847313E+00 -5.8610747130842E-01
28  2.7000000000000E-01  1.0832140711788E+00  1.4453349893195E+00 -6.6546340343430E-01
29  2.8000000000000E-01  9.3662999820901E-01  1.4698650113843E+00 -7.4266116323027E-01
30  2.9000000000000E-01  7.8355603569593E-01  1.4916144456007E+00 -8.1637246254309E-01
31  3.0000000000000E-01  6.2556747858513E-01  1.5105710544048E+00 -8.8526593533970E-01
32  3.1000000000000E-01  4.6427266049949E-01  1.5267321807082E+00 -9.4803290739171E-01
33  3.2000000000000E-01  3.0129293233628E-01  1.5401044749537E+00 -1.0034134378574E+00
34  3.3000000000000E-01  1.3824257353158E-01  1.5507035504845E+00 -1.0502219269194E+00
35  3.4000000000000E-01 -2.3291017019214E-02  1.5585535824888E+00 -1.0873715830045E+00
36  3.5000000000000E-01 -1.8176650910248E-01  1.5636868663750E+00 -1.1138970677116E+00
37  3.6000000000000E-01 -3.3570688180863E-01  1.5661433513177E+00 -1.1289746858004E+00
38  3.7000000000000E-01 -4.8371641330777E-01  1.5659701639222E+00 -1.1319395597878E+00
39  3.8000000000000E-01 -6.2449614750788E-01  1.5632211355328E+00 -1.1222993212900E+00
40  3.9000000000000E-01 -7.5685760316308E-01  1.5579563447525E+00 -1.0997439608057E+00
41  4.0000000000000E-01 -8.7973453435218E-01  1.5502416843409E+00 -1.0641515999966E+00
42  4.1000000000000E-01 -9.9219259866672E-01  1.5401484589490E+00 -1.0155900810088E+00
43  4.2000000000000E-01 -1.0934368393442E+00  1.5277530172661E+00 -9.5431440092568E-01
44  4.3000000000000E-01 -1.1828169383037E+00  1.5131364192386E+00 -8.8076015086269E-01
45  4.4000000000000E-01 -1.2598302469288E+00  1.4963841362218E+00 -7.9553324337659E-01
46  4.5000000000000E-01 -1.3241226488995E+00  1.4775857793750E+00 -6.9939632393808E-01
47  4.6000000000000E-01 -1.3754873529327E+00  1.4568348494339E+00 -5.9325235786513E-01
48  4.7000000000000E-01 -1.4138617516562E+00  1.4342284993038E+00 -4.7812595968886E-01
49  4.8000000000000E-01 -1.4393225149729E+00  1.4098672997786E+00 -3.5514308461158E-01
50  4.9000000000000E-01 -1.4520791113743E+00  1.3838549981767E+00 -2.2550972968704E-01
51  5.0000000000000E-01 -1.4524659682742E+00  1.3562982598064E+00 -9.0490294811677E-02
52  5.1000000000000E-01 -1.4409334923821E+00  1.3273063829223E+00  4.8613769128502E-02
53  5.2000000000000E-01 -1.4180381735869E+00  1.2969909791828E+00  1.9048444417835E-01
54  5.3000000000000E-01 -1.3844319912304E+00  1.2654656134818E+00  3.3380624851908E-01
55  5.4000000000000E-01 -1.3408513307610E+00  1.2328453993264E+00  4.7728353227483E-01
56  5.5000000000000E-01 -1.2881056025464E+00  1.1992465485335E+00  6.1965563936579E-01
57  5.6000000000000E-01 -1.2270657342567E+00  1.1647858768042E+00  7.5970971833155E-01
58  5.7000000000000E-01 -1.1586526850060E+00  1.1295802695483E+00  8.9629107884422E-01
59  5.8000000000000E-01 -1.0838261047167E+00  1.0937461150351E+00  1.0283111035412E+00
60  5.9000000000000E-01 -1.0035732373187E+00  1.0573987143922E+00  1.1547528317407E+00
61  6.0000000000000E-01 -9.1889814269999E-01  1.0206516800338E+00  1.2746744277806E+00
62  6.1000000000000E-01 -8.3081129095583E-01  9.8361633565946E-01  1.3872108279183E+00
63  6.2000000000000E-01 -7.4031956441752E-01  9.4640113193034E-01  1.4915739224655E+00
64  6.3000000000000E-01 -6.4841668891527E-01  9.0911109224862E-01  1.5870516715372E+00
65  6.4000000000000E-01 -5.5607410622509E-01  8.7184730269945E-01  1.6730065719289E+00
66  6.5000000000000E-01 -4.6423229484049E-01  8.3470645917500E-01  1.7488738887706E+00
67  6.6000000000000E-01 -3.7379254598400E-01  7.9778048302240E-01  1.8141600394401E+00
68  6.7000000000000E-01 -2.8560920572165E-01  7.6115621431551E-01  1.8684414705420E+00
69  6.8000000000000E-01 -2.0048240149490E-01  7.2491518914552E-01  1.9113643043859E+00
70  6.9000000000000E-01 -1.1915128143495E-01  6.8913350428660E-01  1.9426449530055E+00
71  7.0000000000000E-01 -4.2287806396947E-02  6.5388176936513E-01  1.9620718097195E+00
72  7.1000000000000E-01  2.9508853450215E-02  6.1922514340535E-01  1.9695080354045E+00
73  7.2000000000000E-01  9.5717254663408E-02  5.8522344950332E-01  1.9648953640940E+00
74  7.3000000000000E-01  1.5589787753482E-01  5.5193135855453E-01  1.9482587652859E+00
75  7.4000000000000E-01  2.0969650682293E-01  5.1939863057550E-01  1.9197117231572E+00
76  7.5000000000000E-01  2.5684671756832E-01  4.8767040034218E-01  1.8794618299316E+00
77  7.6000000000000E-01  2.9717139087924E-01  4.5678749291673E-01  1.8278163452689E+00
78  7.7000000000000E-01  3.3058319341950E-01  4.2678675421148E-01  1.7651873481033E+00
79  7.8000000000000E-01  3.5708396857829E-01  3.9770138206914E-01  1.6920961029852E+00
80  7.9000000000000E-01  3.7676300665551E-01  3.6956124440157E-01  1.6091762795348E+00
81  8.0000000000000E-01  3.8979418517551E-01  3.4239317265978E-01  1.5171756995400E+00
82  8.1000000000000E-01  3.9643199758554E-01  3.1622122119740E-01  1.4169563386061E+00
83  8.2000000000000E-01  3.9700651767089E-01  2.9106688578263E-01  1.3094923738022E+00
84  8.3000000000000E-01  3.9191737627016E-01  2.6694927742030E-01  1.1958661399456E+00
85  8.4000000000000E-01  3.8162685425339E-01  2.4388525053724E-01  1.0772619284103E+00
86  8.5000000000000E-01  3.6665221896867E-01  2.2188948720810E-01  9.5495762614578E-01
87  8.6000000000000E-01  3.4755744804978E-01  2.0097454118178E-01  8.3031424082329E-01
88  8.7000000000000E-01  3.2494449211031E-01  1.8115084672608E-01  7.0476338213000E-01
89  8.8000000000000E-01  2.9944422393877E-01  1.6242669745454E-01  5.7979276057373E-01
90  8.9000000000000E-01  2.7170720393945E-01  1.4480819905506E-01  4.5692971522145E-01
91  9.0000000000000E-01  2.4239435748081E-01  1.2829919694134E-01  3.3772268249357E-01
92  9.1000000000000E-01  2.1216760749204E-01  1.1290117505529E-01  2.2372036206045E-01
93  9.2000000000000E-01  1.8168043332818E-01  9.8613115150201E-02  1.1644811644798E-01
94  9.3000000000000E-01  1.5156823319652E-01  8.5431296706383E-02  1.7380852678606E-02
95  9.4000000000000E-01  1.2243825123268E-01  7.3349006037365E-02 -7.2088727212088E-02
96  9.5000000000000E-01  9.4858690953552E-02  6.2356109041666E-02 -1.5068805771321E-01
97  9.6000000000000E-01  6.9346473961293E-02  5.2438425388382E-02 -2.1731089032246E-01
98  9.7000000000000E-01  4.6352916563968E-02  4.3576822692203E-02 -2.7107438433458E-01
99  9.8000000000000E-01  2.6246387658920E-02  3.5745927447309E-02 -3.1139044213062E-01
100  9.9000000000000E-01  9.2907779188155E-03  2.8912325073644E-02 -3.3805538038592E-01
101  1.0000000000000E+00 -4.3815795963478E-03  2.3032100451906E-02 -3.5136254937113E-01
102  1.0100000000000E+00 -1.4803545389894E-02  1.8047598036868E-02 -3.5224043240000E-01
103  1.0200000000000E+00 -2.2170251367570E-02  1.3887350527665E-02 -3.4221152984740E-01
104  1.0300000000000E+00 -2.6763529550904E-02  1.0473011289362E-02 -3.2302319981904E-01
105  1.0400000000000E+00 -2.8919801932013E-02  7.7228846215463E-03 -2.9651047311784E-01
106  1.0500000000000E+00 -2.9016181002743E-02  5.5538309752722E-03 -2.6455130029441E-01
107  1.0600000000000E+00 -2.7455969930676E-02  3.8831649719015E-03 -2.2902066538210E-01
108  1.0700000000000E+00 -2.4653962006671E-02  2.6305073332704E-03 -1.9174464880040E-01
109  1.0800000000000E+00 -2.1021940979275E-02  1.7195438328959E-03 -1.5445562898118E-01
110  1.0900000000000E+00 -1.6955175737790E-02  1.0796840183469E-03 -1.1875075945572E-01
111  1.1000000000000E+00 -1.2798337895261E-02  6.4588473162876E-04 -8.6001997710181E-02
112  1.1100000000000E+00 -8.8094178720534E-03  3.5957899524767E-04 -5.7258067442208E-02
113  1.1200000000000E+00 -5.3083231929239E-03  1.8025005047125E-04 -3.3601582916211E-02
114  1.1300000000000E+00 -2.5599510755631E-03  7.5257424477181E-05 -1.5871809384739E-02
115  1.1400000000000E+00 -7.5451618660346E-04  2.0261602281888E-05 -4.6045397325821E-03
116  1.1500000000000E+00 -2.7771690700375E-05  7.2880583881938E-07 -1.6721711156386E-04
117  1.1600000000000E+00 -2.6760651231727E-06  6.8128807537129E-08 -1.6141774766562E-05
118  1.1700000000000E+00  6.0841974480951E-07 -1.5842483948311E-08  3.6918770773511E-06
119  1.18  0.  0.  0.
120  1.19  0.  0.  0.
121  1.20  0.  0.  0.
122  1.21  0.  0.  0.
123  1.22  0.  0.  0.
124  1.23  0.  0.  0.
125  1.24  0.  0.  0.
126  1.25  0.  0.  0.
127  1.26  0.  0.  0.
128  1.27  0.  0.  0.
129  1.28  0.  0.  0.
130  1.29  0.  0.  0.
131  1.30  0.  0.  0.
132  1.31  0.  0.  0.
133  1.32  0.  0.  0.
134  1.33  0.  0.  0.
135  1.34  0.  0.  0.
136  1.35  0.  0.  0.
137  1.36  0.  0.  0.
138  1.37  0.  0.  0.
139  1.38  0.  0.  0.
140  1.39  0.  0.  0.
141  1.40  0.  0.  0.
142  1.41  0.  0.  0.
143  1.42  0.  0.  0.
144  1.43  0.  0.  0.
145  1.44  0.  0.  0.
146  1.45  0.  0.  0.
147  1.46  0.  0.  0.
148  1.47  0.  0.  0.
149  1.48  0.  0.  0.
150  1.49  0.  0.  0.
151  1.50  0.  0.  0.
152  1.51  0.  0.  0.
153  1.52  0.  0.  0.
154  1.53  0.  0.  0.
155  1.54  0.  0.  0.
156  1.55  0.  0.  0.
157  1.56  0.  0.  0.
158  1.57  0.  0.  0.
159  1.58  0.  0.  0.
160  1.59  0.  0.  0.
161  1.60  0.  0.  0.
162  1.61  0.  0.  0.
163  1.62  0.  0.  0.
164  1.63  0.  0.  0.
165  1.64  0.  0.  0.
166  1.65  0.  0.  0.
167  1.66  0.  0.  0.
168  1.67  0.  0.  0.
169  1.68  0.  0.  0.
170  1.69  0.  0.  0.
171  1.70  0.  0.  0.
172  1.71  0.  0.  0.
173  1.72  0.  0.  0.
174  1.73  0.  0.  0.
175  1.74  0.  0.  0.
176  1.75  0.  0.  0.
177  1.76  0.  0.  0.
178  1.77  0.  0.  0.
179  1.78  0.  0.  0.
180  1.79  0.  0.  0.
181  1.80  0.  0.  0.
182  1.81  0.  0.  0.
183  1.82  0.  0.  0.
184  1.83  0.  0.  0.
185  1.84  0.  0.  0.
186  1.85  0.  0.  0.
187  1.86  0.  0.  0.
188  1.87  0.  0.  0.
189  1.88  0.  0.  0.
190  1.89  0.  0.  0.
191  1.90  0.  0.  0.
192  1.91  0.  0.  0.
193  1.92  0.  0.  0.
194  1.93  0.  0.  0.
195  1.94  0.  0.  0.
196  1.95  0.  0.  0.
197  1.96  0.  0.  0.
198  1.97  0.  0.  0.
199  1.98  0.  0.  0.
200  1.99  0.  0.  0.
201  2.00  0.  0.  0.
202  2.01  0.  0.  0.
203  2.02  0.  0.  0.
204  2.03  0.  0.  0.
205  2.04  0.  0.  0.
206  2.05  0.  0.  0.
207  2.06  0.  0.  0.
208  2.07  0.  0.  0.
209  2.08  0.  0.  0.
210  2.09  0.  0.  0.
211  2.10  0.  0.  0.
212  2.11  0.  0.  0.
213  2.12  0.  0.  0.
214  2.13  0.  0.  0.
215  2.14  0.  0.  0.
216  2.15  0.  0.  0.
217  2.16  0.  0.  0.
218  2.17  0.  0.  0.
219  2.18  0.  0.  0.
220  2.19  0.  0.  0.
221  2.20  0.  0.  0.
222  2.21  0.  0.  0.
223  2.22  0.  0.  0.
224  2.23  0.  0.  0.
225  2.24  0.  0.  0.
226  2.25  0.  0.  0.
227  2.26  0.  0.  0.
228  2.27  0.  0.  0.
229  2.28  0.  0.  0.
230  2.29  0.  0.  0.
231  2.30  0.  0.  0.
232  2.31  0.  0.  0.
233  2.32  0.  0.  0.
234  2.33  0.  0.  0.
235  2.34  0.  0.  0.
236  2.35  0.  0.  0.
237  2.36  0.  0.  0.
238  2.37  0.  0.  0.
239  2.38  0.  0.  0.
240  2.39  0.  0.  0.
241  2.40  0.  0.  0.
242  2.41  0.  0.  0.
243  2.42  0.  0.  0.
244  2.43  0.  0.  0.
245  2.44  0.  0.  0.
246  2.45  0.  0.  0.
247  2.46  0.  0.  0.
248  2.47  0.  0.  0.
249  2.48  0.  0.  0.
250  2.49  0.  0.  0.
251  2.50  0.  0.  0.
252  2.51  0.  0.  0.
253  2.52  0.  0.  0.
254  2.53  0.  0.  0.
255  2.54  0.  0.  0.
256  2.55  0.  0.  0.
257  2.56  0.  0.  0.
258  2.57  0.  0.  0.
259  2.58  0.  0.  0.
260  2.59  0.  0.  0.
261  2.60  0.  0.  0.
262  2.61  0.  0.  0.
263  2.62  0.  0.  0.
264  2.63  0.  0.  0.
265  2.64  0.  0.  0.
266  2.65  0.  0.  0.
267  2.66  0.  0.  0.
268  2.67  0.  0.  0.
269  2.68  0.  0.  0.
270  2.69  0.  0.  0.
271  2.70  0.  0.  0.
272  2.71  0.  0.  0.
273  2.72  0.  0.  0.
274  2.73  0.  0.  0.
275  2.74  0.  0.  0.
276  2.75  0.  0.  0.
277  2.76  0.  0.  0.
278  2.77  0.  0.  0.
279  2.78  0.  0.  0.
280  2.79  0.  0.  0.
281  2.80  0.  0.  0.
282  2.81  0.  0.  0.
283  2.82  0.  0.  0.
284  2.83  0.  0.  0.
285  2.84  0.  0.  0.
286  2.85  0.  0.  0.
287  2.86  0.  0.  0.
288  2.87  0.  0.  0.
289  2.88  0.  0.  0.
290  2.89  0.  0.  0.
291  2.90  0.  0.  0.
292  2.91  0.  0.  0.
293  2.92  0.  0.  0.
294  2.93  0.  0.  0.
295  2.94  0.  0.  0.
296  2.95  0.  0.  0.
297  2.96  0.  0.  0.
298  2.97  0.  0.  0.
299  2.98  0.  0.  0.
300  2.99  0.  0.  0.
301  3.00  0.  0.  0.
302  3.01  0.  0.  0.
303  3.02  0.  0.  0.
304  3.03  0.  0.  0.
305  3.04  0.  0.  0.
306  3.05  0.  0.  0.
307  3.06  0.  0.  0.
308  3.07  0.  0.  0.
309  3.08  0.  0.  0.
310  3.09  0.  0.  0.
311  3.10  0.  0.  0.
312  3.11  0.  0.  0.
313  3.12  0.  0.  0.
314  3.13  0.  0.  0.
315  3.14  0.  0.  0.
316  3.15  0.  0.  0.
317  3.16  0.  0.  0.
318  3.17  0.  0.  0.
319  3.18  0.  0.  0.
320  3.19  0.  0.  0.
321  3.20  0.  0.  0.
322  3.21  0.  0.  0.
323  3.22  0.  0.  0.
324  3.23  0.  0.  0.
325  3.24  0.  0.  0.
326  3.25  0.  0.  0.
327  3.26  0.  0.  0.
328  3.27  0.  0.  0.
329  3.28  0.  0.  0.
330  3.29  0.  0.  0.
331  3.30  0.  0.  0.
332  3.31  0.  0.  0.
333  3.32  0.  0.  0.
334  3.33  0.  0.  0.
335  3.34  0.  0.  0.
336  3.35  0.  0.  0.
337  3.36  0.  0.  0.
338  3.37  0.  0.  0.
339  3.38  0.  0.  0.
340  3.39  0.  0.  0.
341  3.40  0.  0.  0.
342  3.41  0.  0.  0.
343  3.42  0.  0.  0.
344  3.43  0.  0.  0.
345  3.44  0.  0.  0.
346  3.45  0.  0.  0.
347  3.46  0.  0.  0.
348  3.47  0.  0.  0.
349  3.48  0.  0.  0.
350  3.49  0.  0.  0.
351  3.50  0.  0.  0.
352  3.51  0.  0.  0.
353  3.52  0.  0.  0.
354  3.53  0.  0.  0.
355  3.54  0.  0.  0.
356  3.55  0.  0.  0.
357  3.56  0.  0.  0.
358  3.57  0.  0.  0.
359  3.58  0.  0.  0.
360  3.59  0.  0.  0.
361  3.60  0.  0.  0.
362  3.61  0.  0.  0.
363  3.62  0.  0.  0.
364  3.63  0.  0.  0.
365  3.64  0.  0.  0.
366  3.65  0.  0.  0.
367  3.66  0.  0.  0.
368  3.67  0.  0.  0.
369  3.68  0.  0.  0.
370  3.69  0.  0.  0.
371  3.70  0.  0.  0.
372  3.71  0.  0.  0.
373  3.72  0.  0.  0.
374  3.73  0.  0.  0.
375  3.74  0.  0.  0.
376  3.75  0.  0.  0.
377  3.76  0.  0.  0.
378  3.77  0.  0.  0.
379  3.78  0.  0.  0.
380  3.79  0.  0.  0.
381  3.80  0.  0.  0.
382  3.81  0.  0.  0.
383  3.82  0.  0.  0.
384  3.83  0.  0.  0.
385  3.84  0.  0.  0.
386  3.85  0.  0.  0.
387  3.86  0.  0.  0.
388  3.87  0.  0.  0.
389  3.88  0.  0.  0.
390  3.89  0.  0.  0.
391  3.90  0.  0.  0.
392  3.91  0.  0.  0.
393  3.92  0.  0.  0.
394  3.93  0.  0.  0.
395  3.94  0.  0.  0.
396  3.95  0.  0.  0.
397  3.96  0.  0.  0.
398  3.97  0.  0.  0.
399  3.98  0.  0.  0.
400  3.99  0.  0.  0.
401  4.00  0.  0.  0.
402  4.01  0.  0.  0.
403  4.02  0.  0.  0.
404  4.03  0.  0.  0.
405  4.04  0.  0.  0.
406  4.05  0.  0.  0.
407  4.06  0.  0.  0.
408  4.07  0.  0.  0.
409  4.08  0.  0.  0.
410  4.09  0.  0.  0.
411  4.10  0.  0.  0.
412  4.11  0.  0.  0.
413  4.12  0.  0.  0.
414  4.13  0.  0.  0.
415  4.14  0.  0.  0.
416  4.15  0.  0.  0.
417  4.16  0.  0.  0.
418  4.17  0.  0.  0.
419  4.18  0.  0.  0.
420  4.19  0.  0.  0.
421  4.20  0.  0.  0.
422  4.21  0.  0.  0.
423  4.22  0.  0.  0.
424  4.23  0.  0.  0.
425  4.24  0.  0.  0.
426  4.25  0.  0.  0.
427  4.26  0.  0.  0.
428  4.27  0.  0.  0.
429  4.28  0.  0.  0.
430  4.29  0.  0.  0.
431  4.30  0.  0.  0.
432  4.31  0.  0.  0.
433  4.32  0.  0.  0.
434  4.33  0.  0.  0.
435  4.34  0.  0.  0.
436  4.35  0.  0.  0.
437  4.36  0.  0.  0.
438  4.37  0.  0.  0.
439  4.38  0.  0.  0.
440  4.39  0.  0.  0.
441  4.40  0.  0.  0.
442  4.41  0.  0.  0.
443  4.42  0.  0.  0.
444  4.43  0.  0.  0.
445  4.44  0.  0.  0.
446  4.45  0.  0.  0.
447  4.46  0.  0.  0.
448  4.47  0.  0.  0.
449  4.48  0.  0.  0.
450  4.49  0.  0.  0.
451  4.50  0.  0.  0.
452  4.51  0.  0.  0.
453  4.52  0.  0.  0.
454  4.53  0.  0.  0.
455  4.54  0.  0.  0.
456  4.55  0.  0.  0.
457  4.56  0.  0.  0.
458  4.57  0.  0.  0.
459  4.58  0.  0.  0.
460  4.59  0.  0.  0.
461  4.60  0.  0.  0.
462  4.61  0.  0.  0.
463  4.62  0.  0.  0.
464  4.63  0.  0.  0.
465  4.64  0.  0.  0.
466  4.65  0.  0.  0.
467  4.66  0.  0.  0.
468  4.67  0.  0.  0.
469  4.68  0.  0.  0.
470  4.69  0.  0.  0.
471  4.70  0.  0.  0.
472  4.71  0.  0.  0.
473  4.72  0.  0.  0.
474  4.73  0.  0.  0.
475  4.74  0.  0.  0.
476  4.75  0.  0.  0.
477  4.76  0.  0.  0.
478  4.77  0.  0.  0.
479  4.78  0.  0.  0.
480  4.79  0.  0.  0.
481  4.80  0.  0.  0.
482  4.81  0.  0.  0.
483  4.82  0.  0.  0.
484  4.83  0.  0.  0.
485  4.84  0.  0.  0.
486  4.85  0.  0.  0.
487  4.86  0.  0.  0.
488  4.87  0.  0.  0.
489  4.88  0.  0.  0.
490  4.89  0.  0.  0.
491  4.90  0.  0.  0.
492  4.91  0.  0.  0.
493  4.92  0.  0.  0.
494  4.93  0.  0.  0.
495  4.94  0.  0.  0.
496  4.95  0.  0.  0.
497  4.96  0.  0.  0.
498  4.97  0.  0.  0.
499  4.98  0.  0.  0.
500  4.99  0.  0.  0.
501  5.00  0.  0.  0.
502  5.01  0.  0.  0.
503  5.02  0.  0.  0.
504  5.03  0.  0.  0.
505  5.04  0.  0.  0.
506  5.05  0.  0.  0.
507  5.06  0.  0.  0.
508  5.07  0.  0.  0.
509  5.08  0.  0.  0.
510  5.09  0.  0.  0.
511  5.10  0.  0.  0.
512  5.11  0.  0.  0.
513  5.12  0.  0.  0.
514  5.13  0.  0.  0.
515  5.14  0.  0.  0.
516  5.15  0.  0.  0.
517  5.16  0.  0.  0.
518  5.17  0.  0.  0.
519  5.18  0.  0.  0.
520  5.19  0.  0.  0.
521  5.20  0.  0.  0.
522  5.21  0.  0.  0.
523  5.22  0.  0.  0.
524  5.23  0.  0.  0.
525  5.24  0.  0.  0.
526  5.25  0.  0.  0.
527  5.26  0.  0.  0.
528  5.27  0.  0.  0.
529  5.28  0.  0.  0.
530  5.29  0.  0.  0.
531  5.30  0.  0.  0.
532  5.31  0.  0.  0.
533  5.32  0.  0.  0.
534  5.33  0.  0.  0.
535  5.34  0.  0.  0.
536  5.35  0.  0.  0.
537  5.36  0.  0.  0.
538  5.37  0.  0.  0.
539  5.38  0.  0.  0.
540  5.39  0.  0.  0.
541  5.40  0.  0.  0.
542  5.41  0.  0.  0.
543  5.42  0.  0.  0.
544  5.43  0.  0.  0.
545  5.44  0.  0.  0.
546  5.45  0.  0.  0.
547  5.46  0.  0.  0.
548  5.47  0.  0.  0.
549  5.48  0.  0.  0.
550  5.49  0.  0.  0.
551  5.50  0.  0.  0.
552  5.51  0.  0.  0.
553  5.52  0.  0.  0.
554  5.53  0.  0.  0.
555  5.54  0.  0.  0.
556  5.55  0.  0.  0.
557  5.56  0.  0.  0.
558  5.57  0.  0.  0.
559  5.58  0.  0.  0.
560  5.59  0.  0.  0.
561  5.60  0.  0.  0.
562  5.61  0.  0.  0.
563  5.62  0.  0.  0.
564  5.63  0.  0.  0.
565  5.64  0.  0.  0.
566  5.65  0.  0.  0.
567  5.66  0.  0.  0.
568  5.67  0.  0.  0.
569  5.68  0.  0.  0.
570  5.69  0.  0.  0.
571  5.70  0.  0.  0.
572  5.71  0.  0.  0.
573  5.72  0.  0.  0.
574  5.73  0.  0.  0.
575  5.74  0.  0.  0.
576  5.75  0.  0.  0.
577  5.76  0.  0.  0.
578  5.77  0.  0.  0.
579  5.78  0.  0.  0.
580  5.79  0.  0.  0.
581  5.80  0.  0.  0.
582  5.81  0.  0.  0.
583  5.82  0.  0.  0.
584  5.83  0.  0.  0.
585  5.84  0.  0.  0.
586  5.85  0.  0.  0.
587  5.86  0.  0.  0.
588  5.87  0.  0.  0.
589  5.88  0.  0.  0.
590  5.89  0.  0.  0.
591  5.90  0.  0.  0.
592  5.91  0.  0.  0.
593  5.92  0.  0.  0.
594  5.93  0.  0.  0.
595  5.94  0.  0.  0.
596  5.95  0.  0.  0.
597  5.96  0.  0.  0.
598  5.97  0.  0.  0.
599  5.98  0.  0.  0.
600  5.99  0.  0.  0.
1                        -5.6407813149249E+00  5.3468359917184E+00
1  0.0000000000000E+00 -5.1231117265127E-09  3.6604859254830E-08
2  1.0000000000000E-02  1.5534353537691E-03  7.0930545637551E-03
3  2.0000000000000E-02  6.2132307276617E-03  2.8268906034406E-02
4  3.0000000000000E-02  1.3977728674716E-02  6.3219065066267E-02
5  4.0000000000000E-02  2.4843751879397E-02  1.1143418659444E-01
6  5.0000000000000E-02  3.8805991397879E-02  1.7221120398682E-01
7  6.0000000000000E-02  5.5856171164887E-02  2.4466317464733E-01
8  7.0000000000000E-02  7.5982009224306E-02  3.2773169722840E-01
9  8.0000000000000E-02  9.9166001263915E-02  4.2020172400624E-01
10  9.0000000000000E-02  1.2538405663617E-01  5.2071855782330E-01
11  1.0000000000000E-01  1.5460402103253E-01  6.2780679179350E-01
12  1.1000000000000E-01  1.8678412326628E-01  7.3989092214286E-01
13  1.2000000000000E-01  2.2187138613949E-01  8.5531734052635E-01
14  1.3000000000000E-01  2.5980004307077E-01  9.7237739227609E-01
15  1.4000000000000E-01  3.0049000300490E-01  1.0893311715999E+00
16  1.5000000000000E-01  3.4384540609263E-01  1.2044317140054E+00
17  1.6000000000000E-01  3.8975331171750E-01  1.3159492403570E+00
18  1.7000000000000E-01  4.3808255866974E-01  1.4221951060931E+00
19  1.8000000000000E-01  4.8868283465819E-01  1.5215451132916E+00
20  1.9000000000000E-01  5.4138398895756E-01  1.6124618524400E+00
21  2.0000000000000E-01  5.9599561787382E-01  1.6935157548576E+00
22  2.1000000000000E-01  6.5230694795359E-01  1.7634045555471E+00
23  2.2000000000000E-01  7.1008703655432E-01  1.8209708896009E+00
24  2.3000000000000E-01  7.6908530363269E-01  1.8652177728192E+00
25  2.4000000000000E-01  8.2903240250940E-01  1.8953217485612E+00
26  2.5000000000000E-01  8.8964143104616E-01  1.9106435175803E+00
27  2.6000000000000E-01  9.5060947824739E-01  1.9107359052145E+00
28  2.7000000000000E-01  1.0116194948976E+00  1.8953490602460E+00
29  2.8000000000000E-01  1.0723424705899E+00  1.8644328214205E+00
30  2.9000000000000E-01  1.1324398935089E+00  1.8181362304006E+00
31  3.0000000000000E-01  1.1915664637241E+00  1.7568042131437E+00
32  3.1000000000000E-01  1.2493730256241E+00  1.6809714946857E+00
33  3.2000000000000E-01  1.3055096805899E+00  1.5913538543793E+00
34  3.3000000000000E-01  1.3596290371390E+00  1.4888368691010E+00
35  3.4000000000000E-01  1.4113895526606E+00  1.3744623301555E+00
36  3.5000000000000E-01  1.4604589185461E+00  1.2494125549073E+00
37  3.6000000000000E-01  1.5065174390643E+00  1.1149928459860E+00
38  3.7000000000000E-01  1.5492613537420E+00  9.7261237867981E-01
39  3.8000000000000E-01  1.5884060533184E+00  8.2376382036904E-01
40  3.9000000000000E-01  1.6236891405229E+00  6.7000200414525E-01
41  4.0000000000000E-01  1.6548732889734E+00  5.1292199177478E-01
42  4.1000000000000E-01  1.6817488563494E+00  3.5413686864801E-01
43  4.2000000000000E-01  1.7041362116247E+00  1.9525561515877E-01
44  4.3000000000000E-01  1.7218877404627E+00  3.7861395022362E-02
45  4.4000000000000E-01  1.7348894978179E+00 -1.1650940858369E-01
46  4.5000000000000E-01  1.7430624822399E+00 -2.6638709333759E-01
47  4.6000000000000E-01  1.7463635122586E+00 -4.1038717928558E-01
48  4.7000000000000E-01  1.7447856914150E+00 -5.4722732167749E-01
49  4.8000000000000E-01  1.7383584548920E+00 -6.7574235514344E-01
50  4.9000000000000E-01  1.7271471971633E+00 -7.9489726308445E-01
51  5.0000000000000E-01  1.7112524865149E+00 -9.0379790336417E-01
52  5.1000000000000E-01  1.6908088785727E+00 -1.0016993612888E+00
53  5.2000000000000E-01  1.6659833469906E+00 -1.0880118427226E+00
54  5.3000000000000E-01  1.6369733551099E+00 -1.1623040632373E+00
55  5.4000000000000E-01  1.6040045975936E+00 -1.2243041326500E+00
56  5.5000000000000E-01  1.5673284456838E+00 -1.2738979773541E+00
57  5.6000000000000E-01  1.5272191337554E+00 -1.3111253847093E+00
58  5.7000000000000E-01  1.4839707281782E+00 -1.3361737936522E+00
59  5.8000000000000E-01  1.4378939221071E+00 -1.3493699928840E+00
60  5.9000000000000E-01  1.3893127016642E+00 -1.3511699218161E+00
61  6.0000000000000E-01  1.3385609300379E+00 -1.3421467992862E+00
62  6.1000000000000E-01  1.2859788963004E+00 -1.3229778303828E+00
63  6.2000000000000E-01  1.2319098752480E+00 -1.2944297620734E+00
64  6.3000000000000E-01  1.1766967433282E+00 -1.2573435734078E+00
65  6.4000000000000E-01  1.1206786937674E+00 -1.2126185956104E+00
66  6.5000000000000E-01  1.0641880914154E+00 -1.1611963612694E+00
67  6.6000000000000E-01  1.0075475046325E+00 -1.1040444800720E+00
68  6.7000000000000E-01  9.5106694784180E-01 -1.0421408312091E+00
69  6.8000000000000E-01  8.9504136423345E-01 -9.7645834990009E-01
70  6.9000000000000E-01  8.3974837362506E-01 -9.0795066776729E-01
71  7.0000000000000E-01  7.8544630574714E-01 -8.3753884441753E-01
72  7.1000000000000E-01  7.3237253432663E-01 -7.6609940104524E-01
73  7.2000000000000E-01  6.8074212238021E-01 -6.9445383669808E-01
74  7.3000000000000E-01  6.3074678419322E-01 -6.2335977464067E-01
75  7.4000000000000E-01  5.8255416463841E-01 -5.5350385064605E-01
76  7.5000000000000E-01  5.3630743186393E-01 -4.8549641769155E-01
77  7.6000000000000E-01  4.9212517502706E-01 -4.1986810309304E-01
78  7.7000000000000E-01  4.5010159473723E-01 -3.5706821522465E-01
79  7.8000000000000E-01  4.1030697025522E-01 -2.9746495825058E-01
80  7.9000000000000E-01  3.7278838432275E-01 -2.4134737532026E-01
81  8.0000000000000E-01  3.3757068380375E-01 -1.8892890395692E-01
82  8.1000000000000E-01  3.0465765212937E-01 -1.4035239235205E-01
83  8.2000000000000E-01  2.7403336786615E-01 -9.5696392331462E-02
84  8.3000000000000E-01  2.4566372257248E-01 -5.4982514164250E-02
85  8.4000000000000E-01  2.1949807046174E-01 -1.8183600337831E-02
86  8.5000000000000E-01  1.9547098223319E-01  1.4767549980270E-02
87  8.6000000000000E-01  1.7350407573244E-01  4.3969196823792E-02
88  8.7000000000000E-01  1.5350789682664E-01  6.9541726859381E-02
89  8.8000000000000E-01  1.3538382497947E-01  9.1619101347874E-02
90  8.9000000000000E-01  1.1902597943793E-01  1.1034102922073E-01
91  9.0000000000000E-01  1.0432310364266E-01  1.2584622360859E-01
92  9.1000000000000E-01  9.1160407389238E-02  1.3826711241702E-01
93  9.2000000000000E-01  7.9421348340571E-02  1.4772638472156E-01
94  9.3000000000000E-01  6.8989336664515E-02  1.5433576528425E-01
95  9.4000000000000E-01  5.9749348788178E-02  1.5819741983497E-01
96  9.5000000000000E-01  5.1589438470555E-02  1.5940840436856E-01
97  9.6000000000000E-01  4.4402135548997E-02  1.5806858302917E-01
98  9.7000000000000E-01  3.8085724770177E-02  1.5429245160399E-01
99  9.8000000000000E-01  3.2545399037662E-02  1.4822531761712E-01
100  9.9000000000000E-01  2.7694283247628E-02  1.4006430608940E-01
101  1.0000000000000E+00  2.3454323360438E-02  1.3008459333160E-01
102  1.0100000000000E+00  1.9757007107159E-02  1.1867046793023E-01
103  1.0200000000000E+00  1.6541972848943E-02  1.0629444677651E-01
104  1.0300000000000E+00  1.3753230678559E-02  9.3412566299347E-02
105  1.0400000000000E+00  1.1338831595125E-02  8.0434515894028E-02
106  1.0500000000000E+00  9.2515228658967E-03  6.7722115993094E-02
107  1.0600000000000E+00  7.4492787224952E-03  5.5588457084015E-02
108  1.0700000000000E+00  5.8957156628410E-03  4.4297552237944E-02
109  1.0800000000000E+00  4.5603969179076E-03  3.4064383040871E-02
110  1.0900000000000E+00  3.4190928602940E-03  2.5055462814532E-02
111  1.1000000000000E+00  2.4506320194183E-03  1.7380466484543E-02
112  1.1100000000000E+00  1.6336089289485E-03  1.1091451012200E-02
113  1.1200000000000E+00  9.7021402975943E-04  6.2419301165732E-03
114  1.1300000000000E+00  4.6854470937586E-04  2.8277763830086E-03
115  1.1400000000000E+00  1.4031075416289E-04  7.8667409924108E-04
116  1.1500000000000E+00  5.3375896395754E-06  2.7281113281446E-05
117  1.1600000000000E+00  5.0900758657566E-07  2.6450948222893E-06
118  1.1700000000000E+00 -1.1443894314519E-07 -6.1708970664803E-07
119  1.18  0.  0.
120  1.19  0.  0.
121  1.20  0.  0.
122  1.21  0.  0.
123  1.22  0.  0.
124  1.23  0.  0.
125  1.24  0.  0.
126  1.25  0.  0.
127  1.26  0.  0.
128  1.27  0.  0.
129  1.28  0.  0.
130  1.29  0.  0.
131  1.30  0.  0.
132  1.31  0.  0.
133  1.32  0.  0.
134  1.33  0.  0.
135  1.34  0.  0.
136  1.35  0.  0.
137  1.36  0.  0.
138  1.37  0.  0.
139  1.38  0.  0.
140  1.39  0.  0.
141  1.40  0.  0.
142  1.41  0.  0.
143  1.42  0.  0.
144  1.43  0.  0.
145  1.44  0.  0.
146  1.45  0.  0.
147  1.46  0.  0.
148  1.47  0.  0.
149  1.48  0.  0.
150  1.49  0.  0.
151  1.50  0.  0.
152  1.51  0.  0.
153  1.52  0.  0.
154  1.53  0.  0.
155  1.54  0.  0.
156  1.55  0.  0.
157  1.56  0.  0.
158  1.57  0.  0.
159  1.58  0.  0.
160  1.59  0.  0.
161  1.60  0.  0.
162  1.61  0.  0.
163  1.62  0.  0.
164  1.63  0.  0.
165  1.64  0.  0.