Cn    ONCVPSP-4.0.1  r_core=   1.15172   1.15172   1.15172   1.15172
    112.0000     52.0000      230825    zatom,zion,pspd
     8      11   3     4   600     0    pspcod,pspxc,lmax,lloc,mmax,r2well
  5.99000000  2.50000000  0.00000000    rchrg fchrg qchrg
     3     3     3     2    nproj
     3     1           extension_switch
     4     4     4    nprojso
   0                         1.6452653716280E+01 -6.8227599965764E+00  1.6512881169855E+00
     1  0.0000000000000E+00  1.5688012222626E-08  3.1364782993037E-09  6.4690151013735E-08
     2  1.0000000000000E-02  1.7965825913883E-01  6.7000066649157E-02  3.0775892051320E-02
     3  2.0000000000000E-02  3.5773015186214E-01  1.3388729207266E-01  6.0900965272744E-02
     4  3.0000000000000E-02  5.3264245851076E-01  2.0054849791401E-01  8.9726956889004E-02
     5  4.0000000000000E-02  7.0284822827405E-01  2.6686985424181E-01  1.1661101374331E-01
     6  5.0000000000000E-02  8.6683984742839E-01  3.3273660961343E-01  1.4091912266365E-01
     7  6.0000000000000E-02  1.0231620157289E+00  3.9803288576924E-01  1.6203036133126E-01
     8  7.0000000000000E-02  1.1704245803653E+00  4.6264155461545E-01  1.7934216202249E-01
     9  8.0000000000000E-02  1.3073151612060E+00  5.2644421201705E-01  1.9227671590503E-01
    10  9.0000000000000E-02  1.4326114831581E+00  5.8932125923530E-01  2.0028857052839E-01
    11  1.0000000000000E-01  1.5451933124101E+00  6.5115209874875E-01  2.0287339126329E-01
    12  1.1000000000000E-01  1.6440538742126E+00  7.1181544684965E-01  1.9957777258455E-01
    13  1.2000000000000E-01  1.7283106118973E+00  7.7118976097639E-01  1.9000990130807E-01
    14  1.3000000000000E-01  1.7972151312013E+00  8.2915377539616E-01  1.7385079524785E-01
    15  1.4000000000000E-01  1.8501621617828E+00  8.8558713475542E-01  1.5086577116096E-01
    16  1.5000000000000E-01  1.8866973601125E+00  9.4037111132451E-01  1.2091573885532E-01
    17  1.6000000000000E-01  1.9065237755521E+00  9.9338938861411E-01  8.3967877023999E-02
    18  1.7000000000000E-01  1.9095068050606E+00  1.0445288915524E+00  4.0105223179208E-02
    19  1.8000000000000E-01  1.8956774720349E+00  1.0936806416713E+00 -1.0465293320285E-02
    20  1.9000000000000E-01  1.8652338814607E+00  1.1407406148186E+00 -6.7406828859137E-02
    21  2.0000000000000E-01  1.8185407267362E+00  1.1856105788159E+00 -1.3024902952692E-01
    22  2.1000000000000E-01  1.7561267528553E+00  1.2281988892161E+00 -1.9838721949799E-01
    23  2.2000000000000E-01  1.6786801154633E+00  1.2684212228382E+00 -2.7108465619192E-01
    24  2.3000000000000E-01  1.5870416147350E+00  1.3062012310015E+00 -3.4747804348943E-01
    25  2.4000000000000E-01  1.4821958259656E+00  1.3414710972488E+00 -4.2658639108272E-01
    26  2.5000000000000E-01  1.3652601939222E+00  1.3741719877146E+00 -5.0732319659570E-01
    27  2.6000000000000E-01  1.2374722039551E+00  1.4042543860232E+00 -5.8851181171752E-01
    28  2.7000000000000E-01  1.1001747881122E+00  1.4316783085302E+00 -6.6890373880156E-01
    29  2.8000000000000E-01  9.5480016752507E-01  1.4564133996995E+00 -7.4719949480096E-01
    30  2.9000000000000E-01  8.0285237163855E-01  1.4784389112669E+00 -8.2207157954293E-01
    31  3.0000000000000E-01  6.4588870907610E-01  1.4977435724312E+00 -8.9218899934449E-01
    32  3.1000000000000E-01  4.8550049280969E-01  1.5143253614954E+00 -9.5624272854647E-01
    33  3.2000000000000E-01  3.2329334282646E-01  1.5281911920264E+00 -1.0129714436933E+00
    34  3.3000000000000E-01  1.6086740185381E-01  1.5393565286251E+00 -1.0611868400737E+00
    35  3.4000000000000E-01 -2.0219657709249E-04  1.5478449487154E+00 -1.0997978394879E+00
    36  3.5000000000000E-01 -1.5838427359185E-01  1.5536876673512E+00 -1.1278330218167E+00
    37  3.6000000000000E-01 -3.1220964371105E-01  1.5569230418797E+00 -1.1444606606271E+00
    38  3.7000000000000E-01 -4.6028794884328E-01  1.5575960724286E+00 -1.1490058130718E+00
    39  3.8000000000000E-01 -6.0132301934874E-01  1.5557579126569E+00 -1.1409640042426E+00
    40  3.9000000000000E-01 -7.3412653045842E-01  1.5514654031022E+00 -1.1200111525711E+00
    41  4.0000000000000E-01 -8.5762976421618E-01  1.5447806369014E+00 -1.0860095018328E+00
    42  4.1000000000000E-01 -9.7089333300422E-01  1.5357705647630E+00 -1.0390094522399E+00
    43  4.2000000000000E-01 -1.0731147690859E+00  1.5245066429919E+00 -9.7924731310526E-01
    44  4.3000000000000E-01 -1.1636339338518E+00  1.5110645252466E+00 -9.0713912757677E-01
    45  4.4000000000000E-01 -1.2419362489802E+00  1.4955237957091E+00 -8.2327084101804E-01
    46  4.5000000000000E-01 -1.3076537979754E+00  1.4779677385962E+00 -7.2838519403128E-01
    47  4.6000000000000E-01 -1.3605643890982E+00  1.4584831365850E+00 -6.2336581468743E-01
    48  4.7000000000000E-01 -1.4005887082991E+00  1.4371600888650E+00 -5.0921905867874E-01
    49  4.8000000000000E-01 -1.4277857223886E+00  1.4140918382512E+00 -3.8705419811800E-01
    50  4.9000000000000E-01 -1.4423465175546E+00  1.3893745961617E+00 -2.5806258777187E-01
    51  5.0000000000000E-01 -1.4445867760055E+00  1.3631073542980E+00 -1.2349644085858E-01
    52  5.1000000000000E-01 -1.4349381038072E+00  1.3353916725614E+00  1.5352174557890E-02
    53  5.2000000000000E-01 -1.4139384260330E+00  1.3063314340597E+00  1.5717155176387E-01
    54  5.3000000000000E-01 -1.3822216615991E+00  1.2760325599326E+00  3.0064927239923E-01
    55  5.4000000000000E-01 -1.3405068803079E+00  1.2446026790472E+00  4.4448942512219E-01
    56  5.5000000000000E-01 -1.2895871296143E+00  1.2121507502832E+00  5.8742779309733E-01
    57  5.6000000000000E-01 -1.2303180995690E+00  1.1787866379847E+00  7.2824479293144E-01
    58  5.7000000000000E-01 -1.1636067725348E+00  1.1446206440661E+00  8.6577605742100E-01
    59  5.8000000000000E-01 -1.0904001809101E+00  1.1097630030690E+00  9.9892066347290E-01
    60  5.9000000000000E-01 -1.0116743725513E+00  1.0743233490227E+00  1.1266471098834E+00
    61  6.0000000000000E-01 -9.2842366108861E-01  1.0384101651362E+00  1.2479972426872E+00
    62  6.1000000000000E-01 -8.4165021801124E-01  1.0021302290169E+00  1.3620884044329E+00
    63  6.2000000000000E-01 -7.5235404618437E-01  9.6558806718242E-01  1.4681141446315E+00
    64  6.3000000000000E-01 -6.6152336107102E-01  9.2888543304385E-01  1.5653438692782E+00
    65  6.4000000000000E-01 -5.7012539681609E-01  8.9212082225488E-01  1.6531218262632E+00
    66  6.5000000000000E-01 -4.7909764968311E-01  8.5538903835056E-01  1.7308658202648E+00
    67  6.6000000000000E-01 -3.8933957099981E-01  8.1878081997934E-01  1.7980660260105E+00
    68  6.7000000000000E-01 -3.0170472537483E-01  7.8238253883482E-01  1.8542842243517E+00
    69  6.8000000000000E-01 -2.1699343684476E-01  7.4627597472560E-01  1.8991537241283E+00
    70  6.9000000000000E-01 -1.3594595493032E-01  7.1053817121116E-01  1.9323801578629E+00
    71  7.0000000000000E-01 -5.9236183284353E-02  6.7524137203080E-01  1.9537432551428E+00
    72  7.1000000000000E-01  1.2533975447054E-02  6.4045303532313E-01  1.9630996088194E+00
    73  7.2000000000000E-01  7.8839594949590E-02  6.0623591954315E-01  1.9603863607586E+00
    74  7.3000000000000E-01  1.3923694929826E-01  5.7264823219652E-01  1.9456256507018E+00
    75  7.4000000000000E-01  1.9336690963740E-01  5.3974383017466E-01  1.9189295983904E+00
    76  7.5000000000000E-01  2.4095743681432E-01  5.0757245872065E-01  1.8805055294920E+00
    77  7.6000000000000E-01  2.8182509750805E-01  4.7618001498161E-01  1.8306611132695E+00
    78  7.7000000000000E-01  3.1587554075758E-01  4.4560882177409E-01  1.7698090565928E+00
    79  7.8000000000000E-01  3.4310288636538E-01  4.1589789762565E-01  1.6984709958860E+00
    80  7.9000000000000E-01  3.6358799612822E-01  3.8708321033611E-01  1.6172802457365E+00
    81  8.0000000000000E-01  3.7749562254998E-01  3.5919790315779E-01  1.5269830986379E+00
    82  8.1000000000000E-01  3.8507045657313E-01  3.3227248510773E-01  1.4284384218006E+00
    83  8.2000000000000E-01  3.8663212452152E-01  3.0633497973762E-01  1.3226153599543E+00
    84  8.3000000000000E-01  3.8256921315641E-01  2.8141102969769E-01  1.2105890221956E+00
    85  8.4000000000000E-01  3.7333242850827E-01  2.5752395740205E-01  1.0935340997415E+00
    86  8.5000000000000E-01  3.5942701674790E-01  2.3469478477220E-01  9.7271642262734E-01
    87  8.6000000000000E-01  3.4140459143964E-01  2.1294221711659E-01  8.4948250898882E-01
    88  8.7000000000000E-01  3.1985451864187E-01  1.9228259740348E-01  7.2524718226316E-01
    89  8.8000000000000E-01  2.9539500705399E-01  1.7272983720266E-01  6.0147932097890E-01
    90  8.9000000000000E-01  2.6866403240266E-01  1.5429532911998E-01  4.7968575448247E-01
    91  9.0000000000000E-01  2.4031019130997E-01  1.3698784235189E-01  3.6139321805710E-01
    92  9.1000000000000E-01  2.1098352801619E-01  1.2081339779673E-01  2.4812812518797E-01
    93  9.2000000000000E-01  1.8132630581851E-01  1.0577511175392E-01  1.4139369675667E-01
    94  9.3000000000000E-01  1.5196360255138E-01  9.1872987441774E-02  4.2643701326119E-02
    95  9.4000000000000E-01  1.2349349482225E-01  7.9103621226003E-02 -4.6748296893934E-02
    96  9.5000000000000E-01  9.6476458351610E-02  6.7459775476002E-02 -1.2552571839675E-01
    97  9.6000000000000E-01  7.1423451302487E-02  5.6929752297098E-02 -1.9259382256900E-01
    98  9.7000000000000E-01  4.8781964035596E-02  4.7496482019716E-02 -2.4707526810260E-01
    99  9.8000000000000E-01  2.8919112503702E-02  3.9136217271687E-02 -2.8837967615970E-01
   100  9.9000000000000E-01  1.2100622632156E-02  3.1816697640059E-02 -3.1629124020972E-01
   101  1.0000000000000E+00 -1.5356352693309E-03  2.5494627483070E-02 -3.3107894503877E-01
   102  1.0100000000000E+00 -1.2012566929520E-02  2.0112336244410E-02 -3.3363194605294E-01
   103  1.0200000000000E+00 -1.9511466437051E-02  1.5597623845285E-02 -3.2542088562842E-01
   104  1.0300000000000E+00 -2.4299095432214E-02  1.1870761414159E-02 -3.0813938572599E-01
   105  1.0400000000000E+00 -2.6696584857863E-02  8.8481336495819E-03 -2.8357036074393E-01
   106  1.0500000000000E+00 -2.7065910682636E-02  6.4442517764614E-03 -2.5354210059814E-01
   107  1.0600000000000E+00 -2.5795764954376E-02  4.5737617583323E-03 -2.1988321461078E-01
   108  1.0700000000000E+00 -2.3287214356954E-02  3.1534061053043E-03 -1.8437750393245E-01
   109  1.0800000000000E+00 -1.9939540544254E-02  2.1038894500111E-03 -1.4871993418543E-01
   110  1.0900000000000E+00 -1.6137034724727E-02  1.3516391738334E-03 -1.1447579280954E-01
   111  1.1000000000000E+00 -1.2215944572565E-02  8.2865942436332E-04 -8.2993259870321E-02
   112  1.1100000000000E+00 -8.4293714804910E-03  4.7353132650015E-04 -5.5307957026098E-02
   113  1.1200000000000E+00 -5.0904175309643E-03  2.4347475067817E-04 -3.2485880579082E-02
   114  1.1300000000000E+00 -2.4597435199486E-03  1.0377869845219E-04 -1.5357469405080E-02
   115  1.1400000000000E+00 -7.2633645295190E-04  2.8247368407884E-05 -4.4588209878222E-03
   116  1.1500000000000E+00 -2.6822640027813E-05  1.0067789633737E-06 -1.6216474466198E-04
   117  1.1600000000000E+00 -2.5775879996599E-06  9.5736273198098E-08 -1.5633357740291E-05
   118  1.1700000000000E+00  5.8547904126733E-07 -2.2247512571238E-08  3.5741496290400E-06
   119  1.18  0.  0.  0.
   120  1.19  0.  0.  0.
   121  1.20  0.  0.  0.
   122  1.21  0.  0.  0.
   123  1.22  0.  0.  0.
   124  1.23  0.  0.  0.
   125  1.24  0.  0.  0.
   126  1.25  0.  0.  0.
   127  1.26  0.  0.  0.
   128  1.27  0.  0.  0.
   129  1.28  0.  0.  0.
   130  1.29  0.  0.  0.
   131  1.30  0.  0.  0.
   132  1.31  0.  0.  0.
   133  1.32  0.  0.  0.
   134  1.33  0.  0.  0.
   135  1.34  0.  0.  0.
   136  1.35  0.  0.  0.
   137  1.36  0.  0.  0.
   138  1.37  0.  0.  0.
   139  1.38  0.  0.  0.
   140  1.39  0.  0.  0.
   141  1.40  0.  0.  0.
   142  1.41  0.  0.  0.
   143  1.42  0.  0.  0.
   144  1.43  0.  0.  0.
   145  1.44  0.  0.  0.
   146  1.45  0.  0.  0.
   147  1.46  0.  0.  0.
   148  1.47  0.  0.  0.
   149  1.48  0.  0.  0.
   150  1.49  0.  0.  0.
   151  1.50  0.  0.  0.
   152  1.51  0.  0.  0.
   153  1.52  0.  0.  0.
   154  1.53  0.  0.  0.
   155  1.54  0.  0.  0.
   156  1.55  0.  0.  0.
   157  1.56  0.  0.  0.
   158  1.57  0.  0.  0.
   159  1.58  0.  0.  0.
   160  1.59  0.  0.  0.
   161  1.60  0.  0.  0.
   162  1.61  0.  0.  0.
   163  1.62  0.  0.  0.
   164  1.63  0.  0.  0.
   165  1.64  0.  0.  0.
   166  1.65  0.  0.  0.
   167  1.66  0.  0.  0.
   168  1.67  0.  0.  0.
   169  1.68  0.  0.  0.
   170  1.69  0.  0.  0.
   171  1.70  0.  0.  0.
   172  1.71  0.  0.  0.
   173  1.72  0.  0.  0.
   174  1.73  0.  0.  0.
   175  1.74  0.  0.  0.
   176  1.75  0.  0.  0.
   177  1.76  0.  0.  0.
   178  1.77  0.  0.  0.
   179  1.78  0.  0.  0.
   180  1.79  0.  0.  0.
   181  1.80  0.  0.  0.
   182  1.81  0.  0.  0.
   183  1.82  0.  0.  0.
   184  1.83  0.  0.  0.
   185  1.84  0.  0.  0.
   186  1.85  0.  0.  0.
   187  1.86  0.  0.  0.
   188  1.87  0.  0.  0.
   189  1.88  0.  0.  0.
   190  1.89  0.  0.  0.
   191  1.90  0.  0.  0.
   192  1.91  0.  0.  0.
   193  1.92  0.  0.  0.
   194  1.93  0.  0.  0.
   195  1.94  0.  0.  0.
   196  1.95  0.  0.  0.
   197  1.96  0.  0.  0.
   198  1.97  0.  0.  0.
   199  1.98  0.  0.  0.
   200  1.99  0.  0.  0.
   201  2.00  0.  0.  0.
   202  2.01  0.  0.  0.
   203  2.02  0.  0.  0.
   204  2.03  0.  0.  0.
   205  2.04  0.  0.  0.
   206  2.05  0.  0.  0.
   207  2.06  0.  0.  0.
   208  2.07  0.  0.  0.
   209  2.08  0.  0.  0.
   210  2.09  0.  0.  0.
   211  2.10  0.  0.  0.
   212  2.11  0.  0.  0.
   213  2.12  0.  0.  0.
   214  2.13  0.  0.  0.
   215  2.14  0.  0.  0.
   216  2.15  0.  0.  0.
   217  2.16  0.  0.  0.
   218  2.17  0.  0.  0.
   219  2.18  0.  0.  0.
   220  2.19  0.  0.  0.
   221  2.20  0.  0.  0.
   222  2.21  0.  0.  0.
   223  2.22  0.  0.  0.
   224  2.23  0.  0.  0.
   225  2.24  0.  0.  0.
   226  2.25  0.  0.  0.
   227  2.26  0.  0.  0.
   228  2.27  0.  0.  0.
   229  2.28  0.  0.  0.
   230  2.29  0.  0.  0.
   231  2.30  0.  0.  0.
   232  2.31  0.  0.  0.
   233  2.32  0.  0.  0.
   234  2.33  0.  0.  0.
   235  2.34  0.  0.  0.
   236  2.35  0.  0.  0.
   237  2.36  0.  0.  0.
   238  2.37  0.  0.  0.
   239  2.38  0.  0.  0.
   240  2.39  0.  0.  0.
   241  2.40  0.  0.  0.
   242  2.41  0.  0.  0.
   243  2.42  0.  0.  0.
   244  2.43  0.  0.  0.
   245  2.44  0.  0.  0.
   246  2.45  0.  0.  0.
   247  2.46  0.  0.  0.
   248  2.47  0.  0.  0.
   249  2.48  0.  0.  0.
   250  2.49  0.  0.  0.
   251  2.50  0.  0.  0.
   252  2.51  0.  0.  0.
   253  2.52  0.  0.  0.
   254  2.53  0.  0.  0.
   255  2.54  0.  0.  0.
   256  2.55  0.  0.  0.
   257  2.56  0.  0.  0.
   258  2.57  0.  0.  0.
   259  2.58  0.  0.  0.
   260  2.59  0.  0.  0.
   261  2.60  0.  0.  0.
   262  2.61  0.  0.  0.
   263  2.62  0.  0.  0.
   264  2.63  0.  0.  0.
   265  2.64  0.  0.  0.
   266  2.65  0.  0.  0.
   267  2.66  0.  0.  0.
   268  2.67  0.  0.  0.
   269  2.68  0.  0.  0.
   270  2.69  0.  0.  0.
   271  2.70  0.  0.  0.
   272  2.71  0.  0.  0.
   273  2.72  0.  0.  0.
   274  2.73  0.  0.  0.
   275  2.74  0.  0.  0.
   276  2.75  0.  0.  0.
   277  2.76  0.  0.  0.
   278  2.77  0.  0.  0.
   279  2.78  0.  0.  0.
   280  2.79  0.  0.  0.
   281  2.80  0.  0.  0.
   282  2.81  0.  0.  0.
   283  2.82  0.  0.  0.
   284  2.83  0.  0.  0.
   285  2.84  0.  0.  0.
   286  2.85  0.  0.  0.
   287  2.86  0.  0.  0.
   288  2.87  0.  0.  0.
   289  2.88  0.  0.  0.
   290  2.89  0.  0.  0.
   291  2.90  0.  0.  0.
   292  2.91  0.  0.  0.
   293  2.92  0.  0.  0.
   294  2.93  0.  0.  0.
   295  2.94  0.  0.  0.
   296  2.95  0.  0.  0.
   297  2.96  0.  0.  0.
   298  2.97  0.  0.  0.
   299  2.98  0.  0.  0.
   300  2.99  0.  0.  0.
   301  3.00  0.  0.  0.
   302  3.01  0.  0.  0.
   303  3.02  0.  0.  0.
   304  3.03  0.  0.  0.
   305  3.04  0.  0.  0.
   306  3.05  0.  0.  0.
   307  3.06  0.  0.  0.
   308  3.07  0.  0.  0.
   309  3.08  0.  0.  0.
   310  3.09  0.  0.  0.
   311  3.10  0.  0.  0.
   312  3.11  0.  0.  0.
   313  3.12  0.  0.  0.
   314  3.13  0.  0.  0.
   315  3.14  0.  0.  0.
   316  3.15  0.  0.  0.
   317  3.16  0.  0.  0.
   318  3.17  0.  0.  0.
   319  3.18  0.  0.  0.
   320  3.19  0.  0.  0.
   321  3.20  0.  0.  0.
   322  3.21  0.  0.  0.
   323  3.22  0.  0.  0.
   324  3.23  0.  0.  0.
   325  3.24  0.  0.  0.
   326  3.25  0.  0.  0.
   327  3.26  0.  0.  0.
   328  3.27  0.  0.  0.
   329  3.28  0.  0.  0.
   330  3.29  0.  0.  0.
   331  3.30  0.  0.  0.
   332  3.31  0.  0.  0.
   333  3.32  0.  0.  0.
   334  3.33  0.  0.  0.
   335  3.34  0.  0.  0.
   336  3.35  0.  0.  0.
   337  3.36  0.  0.  0.
   338  3.37  0.  0.  0.
   339  3.38  0.  0.  0.
   340  3.39  0.  0.  0.
   341  3.40  0.  0.  0.
   342  3.41  0.  0.  0.
   343  3.42  0.  0.  0.
   344  3.43  0.  0.  0.
   345  3.44  0.  0.  0.
   346  3.45  0.  0.  0.
   347  3.46  0.  0.  0.
   348  3.47  0.  0.  0.
   349  3.48  0.  0.  0.
   350  3.49  0.  0.  0.
   351  3.50  0.  0.  0.
   352  3.51  0.  0.  0.
   353  3.52  0.  0.  0.
   354  3.53  0.  0.  0.
   355  3.54  0.  0.  0.
   356  3.55  0.  0.  0.
   357  3.56  0.  0.  0.
   358  3.57  0.  0.  0.
   359  3.58  0.  0.  0.
   360  3.59  0.  0.  0.
   361  3.60  0.  0.  0.
   362  3.61  0.  0.  0.
   363  3.62  0.  0.  0.
   364  3.63  0.  0.  0.
   365  3.64  0.  0.  0.
   366  3.65  0.  0.  0.
   367  3.66  0.  0.  0.
   368  3.67  0.  0.  0.
   369  3.68  0.  0.  0.
   370  3.69  0.  0.  0.
   371  3.70  0.  0.  0.
   372  3.71  0.  0.  0.
   373  3.72  0.  0.  0.
   374  3.73  0.  0.  0.
   375  3.74  0.  0.  0.
   376  3.75  0.  0.  0.
   377  3.76  0.  0.  0.
   378  3.77  0.  0.  0.
   379  3.78  0.  0.  0.
   380  3.79  0.  0.  0.
   381  3.80  0.  0.  0.
   382  3.81  0.  0.  0.
   383  3.82  0.  0.  0.
   384  3.83  0.  0.  0.
   385  3.84  0.  0.  0.
   386  3.85  0.  0.  0.
   387  3.86  0.  0.  0.
   388  3.87  0.  0.  0.
   389  3.88  0.  0.  0.
   390  3.89  0.  0.  0.
   391  3.90  0.  0.  0.
   392  3.91  0.  0.  0.
   393  3.92  0.  0.  0.
   394  3.93  0.  0.  0.
   395  3.94  0.  0.  0.
   396  3.95  0.  0.  0.
   397  3.96  0.  0.  0.
   398  3.97  0.  0.  0.
   399  3.98  0.  0.  0.
   400  3.99  0.  0.  0.
   401  4.00  0.  0.  0.
   402  4.01  0.  0.  0.
   403  4.02  0.  0.  0.
   404  4.03  0.  0.  0.
   405  4.04  0.  0.  0.
   406  4.05  0.  0.  0.
   407  4.06  0.  0.  0.
   408  4.07  0.  0.  0.
   409  4.08  0.  0.  0.
   410  4.09  0.  0.  0.
   411  4.10  0.  0.  0.
   412  4.11  0.  0.  0.
   413  4.12  0.  0.  0.
   414  4.13  0.  0.  0.
   415  4.14  0.  0.  0.
   416  4.15  0.  0.  0.
   417  4.16  0.  0.  0.
   418  4.17  0.  0.  0.
   419  4.18  0.  0.  0.
   420  4.19  0.  0.  0.
   421  4.20  0.  0.  0.
   422  4.21  0.  0.  0.
   423  4.22  0.  0.  0.
   424  4.23  0.  0.  0.
   425  4.24  0.  0.  0.
   426  4.25  0.  0.  0.
   427  4.26  0.  0.  0.
   428  4.27  0.  0.  0.
   429  4.28  0.  0.  0.
   430  4.29  0.  0.  0.
   431  4.30  0.  0.  0.
   432  4.31  0.  0.  0.
   433  4.32  0.  0.  0.
   434  4.33  0.  0.  0.
   435  4.34  0.  0.  0.
   436  4.35  0.  0.  0.
   437  4.36  0.  0.  0.
   438  4.37  0.  0.  0.
   439  4.38  0.  0.  0.
   440  4.39  0.  0.  0.
   441  4.40  0.  0.  0.
   442  4.41  0.  0.  0.
   443  4.42  0.  0.  0.
   444  4.43  0.  0.  0.
   445  4.44  0.  0.  0.
   446  4.45  0.  0.  0.
   447  4.46  0.  0.  0.
   448  4.47  0.  0.  0.
   449  4.48  0.  0.  0.
   450  4.49  0.  0.  0.
   451  4.50  0.  0.  0.
   452  4.51  0.  0.  0.
   453  4.52  0.  0.  0.
   454  4.53  0.  0.  0.
   455  4.54  0.  0.  0.
   456  4.55  0.  0.  0.
   457  4.56  0.  0.  0.
   458  4.57  0.  0.  0.
   459  4.58  0.  0.  0.
   460  4.59  0.  0.  0.
   461  4.60  0.  0.  0.
   462  4.61  0.  0.  0.
   463  4.62  0.  0.  0.
   464  4.63  0.  0.  0.
   465  4.64  0.  0.  0.
   466  4.65  0.  0.  0.
   467  4.66  0.  0.  0.
   468  4.67  0.  0.  0.
   469  4.68  0.  0.  0.
   470  4.69  0.  0.  0.
   471  4.70  0.  0.  0.
   472  4.71  0.  0.  0.
   473  4.72  0.  0.  0.
   474  4.73  0.  0.  0.
   475  4.74  0.  0.  0.
   476  4.75  0.  0.  0.
   477  4.76  0.  0.  0.
   478  4.77  0.  0.  0.
   479  4.78  0.  0.  0.
   480  4.79  0.  0.  0.
   481  4.80  0.  0.  0.
   482  4.81  0.  0.  0.
   483  4.82  0.  0.  0.
   484  4.83  0.  0.  0.
   485  4.84  0.  0.  0.
   486  4.85  0.  0.  0.
   487  4.86  0.  0.  0.
   488  4.87  0.  0.  0.
   489  4.88  0.  0.  0.
   490  4.89  0.  0.  0.
   491  4.90  0.  0.  0.
   492  4.91  0.  0.  0.
   493  4.92  0.  0.  0.
   494  4.93  0.  0.  0.
   495  4.94  0.  0.  0.
   496  4.95  0.  0.  0.
   497  4.96  0.  0.  0.
   498  4.97  0.  0.  0.
   499  4.98  0.  0.  0.
   500  4.99  0.  0.  0.
   501  5.00  0.  0.  0.
   502  5.01  0.  0.  0.
   503  5.02  0.  0.  0.
   504  5.03  0.  0.  0.
   505  5.04  0.  0.  0.
   506  5.05  0.  0.  0.
   507  5.06  0.  0.  0.
   508  5.07  0.  0.  0.
   509  5.08  0.  0.  0.
   510  5.09  0.  0.  0.
   511  5.10  0.  0.  0.
   512  5.11  0.  0.  0.
   513  5.12  0.  0.  0.
   514  5.13  0.  0.  0.
   515  5.14  0.  0.  0.
   516  5.15  0.  0.  0.
   517  5.16  0.  0.  0.
   518  5.17  0.  0.  0.
   519  5.18  0.  0.  0.
   520  5.19  0.  0.  0.
   521  5.20  0.  0.  0.
   522  5.21  0.  0.  0.
   523  5.22  0.  0.  0.
   524  5.23  0.  0.  0.
   525  5.24  0.  0.  0.
   526  5.25  0.  0.  0.
   527  5.26  0.  0.  0.
   528  5.27  0.  0.  0.
   529  5.28  0.  0.  0.
   530  5.29  0.  0.  0.
   531  5.30  0.  0.  0.
   532  5.31  0.  0.  0.
   533  5.32  0.  0.  0.
   534  5.33  0.  0.  0.
   535  5.34  0.  0.  0.
   536  5.35  0.  0.  0.
   537  5.36  0.  0.  0.
   538  5.37  0.  0.  0.
   539  5.38  0.  0.  0.
   540  5.39  0.  0.  0.
   541  5.40  0.  0.  0.
   542  5.41  0.  0.  0.
   543  5.42  0.  0.  0.
   544  5.43  0.  0.  0.
   545  5.44  0.  0.  0.
   546  5.45  0.  0.  0.
   547  5.46  0.  0.  0.
   548  5.47  0.  0.  0.
   549  5.48  0.  0.  0.
   550  5.49  0.  0.  0.
   551  5.50  0.  0.  0.
   552  5.51  0.  0.  0.
   553  5.52  0.  0.  0.
   554  5.53  0.  0.  0.
   555  5.54  0.  0.  0.
   556  5.55  0.  0.  0.
   557  5.56  0.  0.  0.
   558  5.57  0.  0.  0.
   559  5.58  0.  0.  0.
   560  5.59  0.  0.  0.
   561  5.60  0.  0.  0.
   562  5.61  0.  0.  0.
   563  5.62  0.  0.  0.
   564  5.63  0.  0.  0.
   565  5.64  0.  0.  0.
   566  5.65  0.  0.  0.
   567  5.66  0.  0.  0.
   568  5.67  0.  0.  0.
   569  5.68  0.  0.  0.
   570  5.69  0.  0.  0.
   571  5.70  0.  0.  0.
   572  5.71  0.  0.  0.
   573  5.72  0.  0.  0.
   574  5.73  0.  0.  0.
   575  5.74  0.  0.  0.
   576  5.75  0.  0.  0.
   577  5.76  0.  0.  0.
   578  5.77  0.  0.  0.
   579  5.78  0.  0.  0.
   580  5.79  0.  0.  0.
   581  5.80  0.  0.  0.
   582  5.81  0.  0.  0.
   583  5.82  0.  0.  0.
   584  5.83  0.  0.  0.
   585  5.84  0.  0.  0.
   586  5.85  0.  0.  0.
   587  5.86  0.  0.  0.
   588  5.87  0.  0.  0.
   589  5.88  0.  0.  0.
   590  5.89  0.  0.  0.
   591  5.90  0.  0.  0.
   592  5.91  0.  0.  0.
   593  5.92  0.  0.  0.
   594  5.93  0.  0.  0.
   595  5.94  0.  0.  0.
   596  5.95  0.  0.  0.
   597  5.96  0.  0.  0.
   598  5.97  0.  0.  0.
   599  5.98  0.  0.  0.
   600  5.99  0.  0.  0.
   1                        -6.3832344721728E+00  3.6624058324132E+00 -2.1795593433571E-01
     1  0.0000000000000E+00 -5.3483141804200E-09  3.3567263857393E-08  9.8538423309869E-08
     2  1.0000000000000E-02  1.5851657692348E-03  6.8558686439007E-03  6.1783341835039E-03
     3  2.0000000000000E-02  6.3402953231695E-03  2.7324974781516E-02  2.4569769766854E-02
     4  3.0000000000000E-02  1.4264152507040E-02  6.1113173393885E-02  5.4746533957268E-02
     5  4.0000000000000E-02  2.5354237243621E-02  1.0773471858250E-01  9.6005373989661E-02
     6  5.0000000000000E-02  3.9606136798389E-02  1.6651894191128E-01  1.4738190648542E-01
     7  6.0000000000000E-02  5.7012639316805E-02  2.3661947226194E-01  2.0767030383005E-01
     8  7.0000000000000E-02  7.7562630885626E-02  3.1702586945047E-01  2.7544792461675E-01
     9  8.0000000000000E-02  1.0123980271846E-01  4.0657751028525E-01  3.4910439666451E-01
    10  9.0000000000000E-02  1.2802119989010E-01  5.0397953433513E-01  4.2687457248925E-01
    11  1.0000000000000E-01  1.5787564724826E-01  6.0782062784961E-01  5.0687470016325E-01
    12  1.1000000000000E-01  1.9076209163096E-01  7.1659239843157E-01  5.8714108877835E-01
    13  1.2000000000000E-01  2.2662790224153E-01  8.2871007057390E-01  6.6567049849794E-01
    14  1.3000000000000E-01  2.6540717292450E-01  9.4253421335991E-01  7.4046145140867E-01
    15  1.4000000000000E-01  3.0701907110348E-01  1.0563931967774E+00  8.0955564171812E-01
    16  1.5000000000000E-01  3.5136627826205E-01  1.1686060624420E+00  8.7107862260967E-01
    17  1.6000000000000E-01  3.9833356606300E-01  1.2775054882486E+00  9.2327896224949E-01
    18  1.7000000000000E-01  4.4778655051991E-01  1.3814605246973E+00  9.6456509269444E-01
    19  1.8000000000000E-01  4.9957066408393E-01  1.4788987834380E+00  9.9353912210406E-01
    20  1.9000000000000E-01  5.5351038213196E-01  1.5683277659537E+00  1.0090269417289E+00
    21  2.0000000000000E-01  6.0940873619799E-01  1.6483550321925E+00  1.0101040333626E+00
    22  2.1000000000000E-01  6.6704714145176E-01  1.7177069252501E+00  9.9611646877025E-01
    23  2.2000000000000E-01  7.2618556048497E-01  1.7752455886954E+00  9.6669668827826E-01
    24  2.3000000000000E-01  7.8656301951371E-01  1.8199840375847E+00  9.2177374927627E-01
    25  2.4000000000000E-01  8.4789848675579E-01  1.8510990723011E+00  8.6157784473328E-01
    26  2.5000000000000E-01  9.0989211611068E-01  1.8679418557073E+00  7.8663900475325E-01
    27  2.6000000000000E-01  9.7222685247965E-01  1.8700460082933E+00  6.9778000841832E-01
    28  2.7000000000000E-01  1.0345703882418E+00  1.8571331125359E+00  5.9610364639751E-01
    29  2.8000000000000E-01  1.0965774536757E+00  1.8291155560476E+00  4.8297458478261E-01
    30  2.9000000000000E-01  1.1578924176117E+00  1.7860966827041E+00  3.5999618516950E-01
    31  3.0000000000000E-01  1.2181521684414E+00  1.7283682612034E+00  2.2898273308098E-01
    32  3.1000000000000E-01  1.2769892399150E+00  1.6564053208062E+00  9.1927614529590E-02
    33  3.2000000000000E-01  1.3340351410305E+00  1.5708584436961E+00 -4.9031942839770E-02
    34  3.3000000000000E-01  1.3889238448658E+00  1.4725436418513E+00 -1.9165288346731E-01
    35  3.4000000000000E-01  1.4412953875089E+00  1.3624299828956E+00 -3.3362636148863E-01
    36  3.5000000000000E-01  1.4907995253704E+00  1.2416251634965E+00 -4.7261903548708E-01
    37  3.6000000000000E-01  1.5370993971919E+00  1.1113592599175E+00 -6.0631483308721E-01
    38  3.7000000000000E-01  1.5798751360100E+00  9.7296691276874E-01 -7.3245639306608E-01
    39  3.8000000000000E-01  1.6188273762477E+00  8.2786822635637E-01 -8.4888540315560E-01
    40  3.9000000000000E-01  1.6536806019725E+00  6.7754868187959E-01 -9.5358107738807E-01
    41  4.0000000000000E-01  1.6841862841812E+00  5.2353837770827E-01 -1.0446960570790E+00
    42  4.1000000000000E-01  1.7101257577137E+00  3.6739091883107E-01 -1.1205890734253E+00
    43  4.2000000000000E-01  1.7313127920146E+00  2.1066228110132E-01 -1.1798537760439E+00
    44  4.3000000000000E-01  1.7475958143947E+00  5.4889974035981E-02 -1.2213432091748E+00
    45  4.4000000000000E-01  1.7588597496084E+00 -9.8427181354133E-02 -1.2441895040877E+00
    46  4.5000000000000E-01  1.7650274453767E+00 -2.4784835580746E-01 -1.2478184506775E+00
    47  4.6000000000000E-01  1.7660606598321E+00 -3.9200880991866E-01 -1.2319587113762E+00
    48  4.7000000000000E-01  1.7619605936420E+00 -5.2963652339559E-01 -1.1966455443222E+00
    49  4.8000000000000E-01  1.7527679566458E+00 -6.5956711866846E-01 -1.1422190081495E+00
    50  4.9000000000000E-01  1.7385625661015E+00 -7.8075687291631E-01 -1.0693167256960E+00
    51  5.0000000000000E-01  1.7194624809379E+00 -8.9229364683460E-01 -9.7886138634666E-01
    52  5.1000000000000E-01  1.6956226836336E+00 -9.9340559550238E-01 -8.7204326464647E-01
    53  5.2000000000000E-01  1.6672333283444E+00 -1.0834675658429E+00 -7.5029812438977E-01
    54  5.3000000000000E-01  1.6345175805707E+00 -1.1620051256880E+00 -6.1528096090624E-01
    55  5.4000000000000E-01  1.5977290798642E+00 -1.2286962106068E+00 -4.6883610820550E-01
    56  5.5000000000000E-01  1.5571490627200E+00 -1.2833704156808E+00 -3.1296430069695E-01
    57  5.6000000000000E-01  1.5130831877811E+00 -1.3260059995382E+00 -1.4978733029788E-01
    58  5.7000000000000E-01  1.4658581097173E+00 -1.3567247064607E+00  1.8489021939832E-02
    59  5.8000000000000E-01  1.4158178515616E+00 -1.3757845485269E+00  1.8961307557311E-01
    60  5.9000000000000E-01  1.3633200278360E+00 -1.3835707229069E+00  3.6132564640610E-01
    61  6.0000000000000E-01  1.3087319724471E+00 -1.3805848689528E+00  5.3139803481536E-01
    62  6.1000000000000E-01  1.2524268260494E+00 -1.3674328951316E+00  6.9766890919097E-01
    63  6.2000000000000E-01  1.1947796373780E+00 -1.3448116266573E+00  8.5807941542159E-01
    64  6.3000000000000E-01  1.1361635319383E+00 -1.3134945405608E+00  1.0107058839560E+00
    65  6.4000000000000E-01  1.0769459994644E+00 -1.2743168656337E+00  1.1537895577160E+00
    66  6.5000000000000E-01  1.0174853487514E+00 -1.2281603300506E+00  1.2857628258506E+00
    67  6.6000000000000E-01  9.5812737490801E-01 -1.1759378394770E+00  1.4052715186902E+00
    68  6.7000000000000E-01  8.9920227984245E-01 -1.1185783631681E+00  1.5111928968189E+00
    69  6.8000000000000E-01  8.4102188196510E-01 -1.0570122951342E+00  1.6026490504052E+00
    70  6.9000000000000E-01  7.8387714578461E-01 -9.9215754214691E-01  1.6790155121868E+00
    71  7.0000000000000E-01  7.2803605637847E-01 -9.2490657054461E-01  1.7399249772113E+00
    72  7.1000000000000E-01  6.7374185775833E-01 -8.5611461990062E-01  1.7852661129476E+00
    73  7.2000000000000E-01  6.2121166803090E-01 -7.8658926412480E-01  1.8151775331976E+00