Fm    ONCVPSP-4.0.1  r_core=   1.15134   1.15134   1.20057   1.35316
    100.0000     40.0000      230825    zatom,zion,pspd
     8      11   3     4   600     0    pspcod,pspxc,lmax,lloc,mmax,r2well
  5.99000000  5.00000000  0.00000000    rchrg fchrg qchrg
     3     4     3     2    nproj
     3     1           extension_switch
     4     3     3    nprojso
   0                         2.1442001381968E+01  2.8219598894331E+00 -1.7533457705493E+00
     1  0.0000000000000E+00 -1.3114099939315E-07 -3.9236904481044E-07 -1.9415543228707E-08
     2  1.0000000000000E-02  1.6417536395473E-01  7.4429059472418E-02  3.6726765783909E-02
     3  2.0000000000000E-02  3.2681146635590E-01  1.4634569308141E-01  7.3299258559690E-02
     4  3.0000000000000E-02  4.8639972411293E-01  2.1331827447664E-01  1.0956696975199E-01
     5  4.0000000000000E-02  6.4149192902472E-01  2.7307387859029E-01  1.4538678490696E-01
     6  5.0000000000000E-02  7.9072801627023E-01  3.2357049598062E-01  1.8062634928641E-01
     7  6.0000000000000E-02  9.3286102996583E-01  3.6306098211220E-01  2.1516705058217E-01
     8  7.0000000000000E-02  1.0667785137674E+00  3.9014647195334E-01  2.4890651527026E-01
     9  8.0000000000000E-02  1.1915196856356E+00  4.0381738264065E-01  2.8176053453934E-01
    10  9.0000000000000E-02  1.3062879102149E+00  4.0348058886849E-01  3.1366435845872E-01
    11  1.0000000000000E-01  1.4104581539441E+00  3.8897186968883E-01  3.4457332216354E-01
    12  1.1000000000000E-01  1.5035792905253E+00  3.6055327216785E-01  3.7446279430054E-01
    13  1.2000000000000E-01  1.5853713108097E+00  3.1889559624552E-01  4.0332746471117E-01
    14  1.3000000000000E-01  1.6557176744740E+00  2.6504675513414E-01  4.3118001423442E-01
    15  1.4000000000000E-01  1.7146532141439E+00  2.0038728600171E-01  4.5804923352813E-01
    16  1.5000000000000E-01  1.7623481593449E+00  1.2657475696302E-01  4.8397767895240E-01
    17  1.6000000000000E-01  1.7990889819492E+00  4.5479220902479E-02  5.0901897096683E-01
    18  1.7000000000000E-01  1.8252568716313E+00 -4.0887810742017E-02  5.3323485345596E-01
    19  1.8000000000000E-01  1.8413047252839E+00 -1.3044817237578E-01  5.5669214038747E-01
    20  1.9000000000000E-01  1.8477335756407E+00 -2.2113279853895E-01  5.7945967890572E-01
    21  2.0000000000000E-01  1.8450693900650E+00 -3.1095558021104E-01  6.0160545526748E-01
    22  2.1000000000000E-01  1.8338411405148E+00 -3.9808256297262E-01  6.2319396205946E-01
    23  2.2000000000000E-01  1.8145609813940E+00 -4.8089391833566E-01  6.4428393223904E-01
    24  2.3000000000000E-01  1.7877072759282E+00 -5.5803640726896E-01  6.6492652825643E-01
    25  2.4000000000000E-01  1.7537110876952E+00 -6.2846442778747E-01  6.8516405357553E-01
    26  2.5000000000000E-01  1.7129466068540E+00 -6.9146818212049E-01  7.0502923019356E-01
    27  2.6000000000000E-01  1.6657258162045E+00 -7.4668799646217E-01  7.2454506026141E-01
    28  2.7000000000000E-01  1.6122975268674E+00 -7.9411435867711E-01  7.4372526370127E-01
    29  2.8000000000000E-01  1.5528507338860E+00 -8.3407378634679E-01  7.6257525790615E-01
    30  2.9000000000000E-01  1.4875220653689E+00 -8.6720117847589E-01  7.8109362127605E-01
    31  3.0000000000000E-01  1.4164069317062E+00 -8.9439981858903E-01  7.9927396052550E-01
    32  3.1000000000000E-01  1.3395738303301E+00 -9.1679066546292E-01  8.1710708330956E-01
    33  3.2000000000000E-01  1.2570811322366E+00 -9.3565297278970E-01  8.3458336354551E-01
    34  3.3000000000000E-01  1.1689955739609E+00 -9.5235860554498E-01  8.5169517746043E-01
    35  3.4000000000000E-01  1.0754116067992E+00 -9.6830265665480E-01  8.6843928428124E-01
    36  3.5000000000000E-01  9.7647071648523E-01 -9.8483310412682E-01  8.8481902679160E-01
    37  3.6000000000000E-01  8.7237982267284E-01 -1.0031822813123E+00  9.0084623367459E-01
    38  3.7000000000000E-01  7.6342789851986E-01 -1.0244028605598E+00  9.1654271737929E-01
    39  3.8000000000000E-01  6.5000001514238E-01 -1.0493108763192E+00  9.3194127771718E-01
    40  3.9000000000000E-01  5.3258811117345E-01 -1.0784380447358E+00  9.4708614183913E-01
    41  4.0000000000000E-01  4.1179791038435E-01 -1.1119952834420E+00  9.6203279482541E-01
    42  4.1000000000000E-01  2.8835155555985E-01 -1.1498489112728E+00  9.7684718086624E-01
    43  4.2000000000000E-01  1.6308568895975E-01 -1.1915105292580E+00  9.9160428185309E-01
    44  4.3000000000000E-01  3.6944882530928E-02 -1.2361410696865E+00  1.0063861070245E+00
    45  4.4000000000000E-01 -8.9029502046491E-02 -1.2825689688050E+00  1.0212791529986E+00
    46  4.5000000000000E-01 -2.1371476910810E-01 -1.3293218907696E+00  1.0363714170015E+00
    47  4.6000000000000E-01 -3.3592624111607E-01 -1.3746709255858E+00  1.0517490663878E+00
    48  4.7000000000000E-01 -4.5443993805769E-01 -1.4166857206648E+00  1.0674928837828E+00
    49  4.8000000000000E-01 -5.6801788641315E-01 -1.4532986013379E+00  1.0836746186834E+00
    50  4.9000000000000E-01 -6.7543525706978E-01 -1.4823754048820E+00  1.1003533826283E+00
    51  5.0000000000000E-01 -7.7550845812155E-01 -1.5017905071207E+00  1.1175722258307E+00
    52  5.1000000000000E-01 -8.6712326710538E-01 -1.5095033689637E+00  1.1353550283957E+00
    53  5.2000000000000E-01 -9.4926207923613E-01 -1.5036338772221E+00  1.1537038291210E+00
    54  5.3000000000000E-01 -1.0210293736785E+00 -1.4825338008183E+00  1.1725966997990E+00
    55  5.4000000000000E-01 -1.0816745576389E+00 -1.4448518274639E+00  1.1919862535241E+00
    56  5.5000000000000E-01 -1.1306114356654E+00 -1.3895898807633E+00  1.2117988525542E+00
    57  5.6000000000000E-01 -1.1674336654988E+00 -1.3161487339126E+00  1.2319345557235E+00
    58  5.7000000000000E-01 -1.1919256976536E+00 -1.2243613211827E+00  1.2522678183054E+00
    59  5.8000000000000E-01 -1.2040688483885E+00 -1.1145125872399E+00  1.2726489296967E+00
    60  5.9000000000000E-01 -1.2040423190450E+00 -9.8734519029088E-01  1.2929061474671E+00
    61  6.0000000000000E-01 -1.1922191427713E+00 -8.4405087011897E-01  1.3128484612887E+00
    62  6.1000000000000E-01 -1.1691572061729E+00 -6.8624778789603E-01  1.3322688980519E+00
    63  6.2000000000000E-01 -1.1355856524002E+00 -5.1594462309835E-01  1.3509482609874E+00
    64  6.3000000000000E-01 -1.0923871178920E+00 -3.3549265670826E-01  1.3686591815826E+00
    65  6.4000000000000E-01 -1.0405763823926E+00 -1.4752746356094E-01  1.3851703540575E+00
    66  6.5000000000000E-01 -9.8127611663812E-01  4.5097833269944E-02  1.4002508184809E+00
    67  6.6000000000000E-01 -9.1569049092350E-01  2.3938553757413E-01  1.4136741603601E+00
    68  6.7000000000000E-01 -8.4507745831833E-01  4.3227020281264E-01  1.4252225016089E+00
    69  6.8000000000000E-01 -7.7072054741643E-01  6.2069683440105E-01  1.4346901698154E+00
    70  6.9000000000000E-01 -6.9390099115857E-01  8.0169800486137E-01  1.4418869491343E+00
    71  7.0000000000000E-01 -6.1587098154072E-01  9.7246750285699E-01  1.4466408361606E+00
    72  7.1000000000000E-01 -5.3782877707585E-01  1.1304283054282E+00  1.4488002468775E+00
    73  7.2000000000000E-01 -4.6089630378497E-01  1.2732929036228E+00  1.4482356452078E+00
    74  7.3000000000000E-01 -3.8609978517348E-01  1.3991143144134E+00  1.4448405887137E+00
    75  7.4000000000000E-01 -3.1435381660188E-01  1.5063264636501E+00  1.4385322114878E+00
    76  7.5000000000000E-01 -2.4644916964872E-01  1.5937730115848E+00  1.4292511871561E+00
    77  7.6000000000000E-01 -1.8304447766863E-01  1.6607240990915E+00  1.4169612351628E+00
    78  7.7000000000000E-01 -1.2466181994591E-01  1.7068809037437E+00  1.4016482502264E+00
    79  7.8000000000000E-01 -7.1686093626573E-02  1.7323682953054E+00  1.3833191473264E+00
    80  7.9000000000000E-01 -2.4367944577001E-02  1.7377162557669E+00  1.3620005222368E+00
    81  8.0000000000000E-01  1.7170075514740E-02  1.7238310671018E+00  1.3377372301695E+00
    82  8.1000000000000E-01  5.2924544790754E-02  1.6919575595648E+00  1.3105909824109E+00
    83  8.2000000000000E-01  8.2999884929080E-02  1.6436339459882E+00  1.2806390530940E+00
    84  8.3000000000000E-01  1.0759528291352E-01  1.5806409370846E+00  1.2479731758162E+00
    85  8.4000000000000E-01  1.2699037333525E-01  1.5049469357636E+00  1.2126986932763E+00
    86  8.5000000000000E-01  1.4153023417513E-01  1.4186511442018E+00  1.1749340032686E+00
    87  8.6000000000000E-01  1.5161022867593E-01  1.3239263877372E+00  1.1348103221454E+00
    88  8.7000000000000E-01  1.5766118670727E-01  1.2229633688979E+00  1.0924717633324E+00
    89  8.8000000000000E-01  1.6013536359949E-01  1.1179179195094E+00  1.0480757047468E+00
    90  8.9000000000000E-01  1.5949354596535E-01  1.0108626271219E+00  1.0017933961898E+00
    91  9.0000000000000E-01  1.5619359611825E-01  9.0374398362293E-01  9.5381073705945E-01
    92  9.1000000000000E-01  1.5068064313070E-01  7.9834594942661E-01  9.0432913709541E-01
    93  9.2000000000000E-01  1.4337904319891E-01  6.9626055710562E-01  8.5356635921168E-01
    94  9.3000000000000E-01  1.3468614848593E-01  5.9886590467678E-01  8.0175723453564E-01
    95  9.4000000000000E-01  1.2496784545247E-01  5.0731162152473E-01  7.4915413606994E-01
    96  9.5000000000000E-01  1.1455575382577E-01  4.2251163864499E-01  6.9602709922482E-01
    97  9.6000000000000E-01  1.0374591826889E-01  3.4514386783439E-01  6.4266348488451E-01
    98  9.7000000000000E-01  9.2798778314857E-02  2.7565619839936E-01  5.8936709346708E-01
    99  9.8000000000000E-01  8.1940169349270E-02  2.1427805981873E-01  5.3645665617498E-01
   100  9.9000000000000E-01  7.1363088804762E-02  1.6103667775113E-01  4.8426365164261E-01
   101  1.0000000000000E+00  6.1229957007279E-02  1.1577707003734E-01  4.3312942159825E-01
   102  1.0100000000000E+00  5.1675110358755E-02  7.8184788290988E-02  3.8340158692375E-01
   103  1.0200000000000E+00  4.2807284299558E-02  4.7810407054480E-02  3.3542979449484E-01
   104  1.0300000000000E+00  3.4711872808759E-02  2.4094792680715E-02  2.8956085416384E-01
   105  1.0400000000000E+00  2.7452787721959E-02  6.3942430764410E-03  2.4613335295487E-01
   106  1.0500000000000E+00  2.1073782429400E-02 -5.9953283229447E-03  2.0547185881547E-01
   107  1.0600000000000E+00  1.5599147907239E-02 -1.3815891732201E-02  1.6788084793410E-01
   108  1.0700000000000E+00  1.1033731927997E-02 -1.7827101058391E-02  1.3363850671886E-01
   109  1.0800000000000E+00  7.3622193830729E-03 -1.8789031211146E-02  1.0299052675810E-01
   110  1.0900000000000E+00  4.5481523434219E-03 -1.7447113867888E-02  7.6144434737338E-02
   111  1.1000000000000E+00  2.5095208331588E-03 -1.4578779723735E-02  5.3244105311406E-02
   112  1.1100000000000E+00  1.1122975384959E-03 -1.1000358268860E-02  3.4357063237578E-02
   113  1.1200000000000E+00  2.9846126252792E-04 -7.2257261749632E-03  1.9589993450181E-02
   114  1.1300000000000E+00 -4.0183201077546E-05 -3.7751759764815E-03  8.9824504923280E-03
   115  1.1400000000000E+00 -6.6844627478460E-05 -1.1818890619233E-03  2.4897434468033E-03
   116  1.1500000000000E+00 -3.7334511264144E-06 -3.6856308719316E-05  6.8606845193424E-05
   117  1.1600000000000E+00 -5.4227651559524E-07 -5.7651727105505E-06  1.0905289057684E-05
   118  1.1700000000000E+00  7.3239215419626E-08  9.5813093570409E-07 -1.9081099937671E-06
   119  1.18  0.  0.  0.
   120  1.19  0.  0.  0.
   121  1.20  0.  0.  0.
   122  1.21  0.  0.  0.
   123  1.22  0.  0.  0.
   124  1.23  0.  0.  0.
   125  1.24  0.  0.  0.
   126  1.25  0.  0.  0.
   127  1.26  0.  0.  0.
   128  1.27  0.  0.  0.
   129  1.28  0.  0.  0.
   130  1.29  0.  0.  0.
   131  1.30  0.  0.  0.
   132  1.31  0.  0.  0.
   133  1.32  0.  0.  0.
   134  1.33  0.  0.  0.
   135  1.34  0.  0.  0.
   136  1.35  0.  0.  0.
   137  1.36  0.  0.  0.
   138  1.37  0.  0.  0.
   139  1.38  0.  0.  0.
   140  1.39  0.  0.  0.
   141  1.40  0.  0.  0.
   142  1.41  0.  0.  0.
   143  1.42  0.  0.  0.
   144  1.43  0.  0.  0.
   145  1.44  0.  0.  0.
   146  1.45  0.  0.  0.
   147  1.46  0.  0.  0.
   148  1.47  0.  0.  0.
   149  1.48  0.  0.  0.
   150  1.49  0.  0.  0.
   151  1.50  0.  0.  0.
   152  1.51  0.  0.  0.
   153  1.52  0.  0.  0.
   154  1.53  0.  0.  0.
   155  1.54  0.  0.  0.
   156  1.55  0.  0.  0.
   157  1.56  0.  0.  0.
   158  1.57  0.  0.  0.
   159  1.58  0.  0.  0.
   160  1.59  0.  0.  0.
   161  1.60  0.  0.  0.
   162  1.61  0.  0.  0.
   163  1.62  0.  0.  0.
   164  1.63  0.  0.  0.
   165  1.64  0.  0.  0.
   166  1.65  0.  0.  0.
   167  1.66  0.  0.  0.
   168  1.67  0.  0.  0.
   169  1.68  0.  0.  0.
   170  1.69  0.  0.  0.
   171  1.70  0.  0.  0.
   172  1.71  0.  0.  0.
   173  1.72  0.  0.  0.
   174  1.73  0.  0.  0.
   175  1.74  0.  0.  0.
   176  1.75  0.  0.  0.
   177  1.76  0.  0.  0.
   178  1.77  0.  0.  0.
   179  1.78  0.  0.  0.
   180  1.79  0.  0.  0.
   181  1.80  0.  0.  0.
   182  1.81  0.  0.  0.
   183  1.82  0.  0.  0.
   184  1.83  0.  0.  0.
   185  1.84  0.  0.  0.
   186  1.85  0.  0.  0.
   187  1.86  0.  0.  0.
   188  1.87  0.  0.  0.
   189  1.88  0.  0.  0.
   190  1.89  0.  0.  0.
   191  1.90  0.  0.  0.
   192  1.91  0.  0.  0.
   193  1.92  0.  0.  0.
   194  1.93  0.  0.  0.
   195  1.94  0.  0.  0.
   196  1.95  0.  0.  0.
   197  1.96  0.  0.  0.
   198  1.97  0.  0.  0.
   199  1.98  0.  0.  0.
   200  1.99  0.  0.  0.
   201  2.00  0.  0.  0.
   202  2.01  0.  0.  0.
   203  2.02  0.  0.  0.
   204  2.03  0.  0.  0.
   205  2.04  0.  0.  0.
   206  2.05  0.  0.  0.
   207  2.06  0.  0.  0.
   208  2.07  0.  0.  0.
   209  2.08  0.  0.  0.
   210  2.09  0.  0.  0.
   211  2.10  0.  0.  0.
   212  2.11  0.  0.  0.
   213  2.12  0.  0.  0.
   214  2.13  0.  0.  0.
   215  2.14  0.  0.  0.
   216  2.15  0.  0.  0.
   217  2.16  0.  0.  0.
   218  2.17  0.  0.  0.
   219  2.18  0.  0.  0.
   220  2.19  0.  0.  0.
   221  2.20  0.  0.  0.
   222  2.21  0.  0.  0.
   223  2.22  0.  0.  0.
   224  2.23  0.  0.  0.
   225  2.24  0.  0.  0.
   226  2.25  0.  0.  0.
   227  2.26  0.  0.  0.
   228  2.27  0.  0.  0.
   229  2.28  0.  0.  0.
   230  2.29  0.  0.  0.
   231  2.30  0.  0.  0.
   232  2.31  0.  0.  0.
   233  2.32  0.  0.  0.
   234  2.33  0.  0.  0.
   235  2.34  0.  0.  0.
   236  2.35  0.  0.  0.
   237  2.36  0.  0.  0.
   238  2.37  0.  0.  0.
   239  2.38  0.  0.  0.
   240  2.39  0.  0.  0.
   241  2.40  0.  0.  0.
   242  2.41  0.  0.  0.
   243  2.42  0.  0.  0.
   244  2.43  0.  0.  0.
   245  2.44  0.  0.  0.
   246  2.45  0.  0.  0.
   247  2.46  0.  0.  0.
   248  2.47  0.  0.  0.
   249  2.48  0.  0.  0.
   250  2.49  0.  0.  0.
   251  2.50  0.  0.  0.
   252  2.51  0.  0.  0.
   253  2.52  0.  0.  0.
   254  2.53  0.  0.  0.
   255  2.54  0.  0.  0.
   256  2.55  0.  0.  0.
   257  2.56  0.  0.  0.
   258  2.57  0.  0.  0.
   259  2.58  0.  0.  0.
   260  2.59  0.  0.  0.
   261  2.60  0.  0.  0.
   262  2.61  0.  0.  0.
   263  2.62  0.  0.  0.
   264  2.63  0.  0.  0.
   265  2.64  0.  0.  0.
   266  2.65  0.  0.  0.
   267  2.66  0.  0.  0.
   268  2.67  0.  0.  0.
   269  2.68  0.  0.  0.
   270  2.69  0.  0.  0.
   271  2.70  0.  0.  0.
   272  2.71  0.  0.  0.
   273  2.72  0.  0.  0.
   274  2.73  0.  0.  0.
   275  2.74  0.  0.  0.
   276  2.75  0.  0.  0.
   277  2.76  0.  0.  0.
   278  2.77  0.  0.  0.
   279  2.78  0.  0.  0.
   280  2.79  0.  0.  0.
   281  2.80  0.  0.  0.
   282  2.81  0.  0.  0.
   283  2.82  0.  0.  0.
   284  2.83  0.  0.  0.
   285  2.84  0.  0.  0.
   286  2.85  0.  0.  0.
   287  2.86  0.  0.  0.
   288  2.87  0.  0.  0.
   289  2.88  0.  0.  0.
   290  2.89  0.  0.  0.
   291  2.90  0.  0.  0.
   292  2.91  0.  0.  0.
   293  2.92  0.  0.  0.
   294  2.93  0.  0.  0.
   295  2.94  0.  0.  0.
   296  2.95  0.  0.  0.
   297  2.96  0.  0.  0.
   298  2.97  0.  0.  0.
   299  2.98  0.  0.  0.
   300  2.99  0.  0.  0.
   301  3.00  0.  0.  0.
   302  3.01  0.  0.  0.
   303  3.02  0.  0.  0.
   304  3.03  0.  0.  0.
   305  3.04  0.  0.  0.
   306  3.05  0.  0.  0.
   307  3.06  0.  0.  0.
   308  3.07  0.  0.  0.
   309  3.08  0.  0.  0.
   310  3.09  0.  0.  0.
   311  3.10  0.  0.  0.
   312  3.11  0.  0.  0.
   313  3.12  0.  0.  0.
   314  3.13  0.  0.  0.
   315  3.14  0.  0.  0.
   316  3.15  0.  0.  0.
   317  3.16  0.  0.  0.
   318  3.17  0.  0.  0.
   319  3.18  0.  0.  0.
   320  3.19  0.  0.  0.
   321  3.20  0.  0.  0.
   322  3.21  0.  0.  0.
   323  3.22  0.  0.  0.
   324  3.23  0.  0.  0.
   325  3.24  0.  0.  0.
   326  3.25  0.  0.  0.
   327  3.26  0.  0.  0.
   328  3.27  0.  0.  0.
   329  3.28  0.  0.  0.
   330  3.29  0.  0.  0.
   331  3.30  0.  0.  0.
   332  3.31  0.  0.  0.
   333  3.32  0.  0.  0.
   334  3.33  0.  0.  0.
   335  3.34  0.  0.  0.
   336  3.35  0.  0.  0.
   337  3.36  0.  0.  0.
   338  3.37  0.  0.  0.
   339  3.38  0.  0.  0.
   340  3.39  0.  0.  0.
   341  3.40  0.  0.  0.
   342  3.41  0.  0.  0.
   343  3.42  0.  0.  0.
   344  3.43  0.  0.  0.
   345  3.44  0.  0.  0.
   346  3.45  0.  0.  0.
   347  3.46  0.  0.  0.
   348  3.47  0.  0.  0.
   349  3.48  0.  0.  0.
   350  3.49  0.  0.  0.
   351  3.50  0.  0.  0.
   352  3.51  0.  0.  0.
   353  3.52  0.  0.  0.
   354  3.53  0.  0.  0.
   355  3.54  0.  0.  0.
   356  3.55  0.  0.  0.
   357  3.56  0.  0.  0.
   358  3.57  0.  0.  0.
   359  3.58  0.  0.  0.
   360  3.59  0.  0.  0.
   361  3.60  0.  0.  0.
   362  3.61  0.  0.  0.
   363  3.62  0.  0.  0.
   364  3.63  0.  0.  0.
   365  3.64  0.  0.  0.
   366  3.65  0.  0.  0.
   367  3.66  0.  0.  0.
   368  3.67  0.  0.  0.
   369  3.68  0.  0.  0.
   370  3.69  0.  0.  0.
   371  3.70  0.  0.  0.
   372  3.71  0.  0.  0.
   373  3.72  0.  0.  0.
   374  3.73  0.  0.  0.
   375  3.74  0.  0.  0.
   376  3.75  0.  0.  0.
   377  3.76  0.  0.  0.
   378  3.77  0.  0.  0.
   379  3.78  0.  0.  0.
   380  3.79  0.  0.  0.
   381  3.80  0.  0.  0.
   382  3.81  0.  0.  0.
   383  3.82  0.  0.  0.
   384  3.83  0.  0.  0.
   385  3.84  0.  0.  0.
   386  3.85  0.  0.  0.
   387  3.86  0.  0.  0.
   388  3.87  0.  0.  0.
   389  3.88  0.  0.  0.
   390  3.89  0.  0.  0.
   391  3.90  0.  0.  0.
   392  3.91  0.  0.  0.
   393  3.92  0.  0.  0.
   394  3.93  0.  0.  0.
   395  3.94  0.  0.  0.
   396  3.95  0.  0.  0.
   397  3.96  0.  0.  0.
   398  3.97  0.  0.  0.
   399  3.98  0.  0.  0.
   400  3.99  0.  0.  0.
   401  4.00  0.  0.  0.
   402  4.01  0.  0.  0.
   403  4.02  0.  0.  0.
   404  4.03  0.  0.  0.
   405  4.04  0.  0.  0.
   406  4.05  0.  0.  0.
   407  4.06  0.  0.  0.
   408  4.07  0.  0.  0.
   409  4.08  0.  0.  0.
   410  4.09  0.  0.  0.
   411  4.10  0.  0.  0.
   412  4.11  0.  0.  0.
   413  4.12  0.  0.  0.
   414  4.13  0.  0.  0.
   415  4.14  0.  0.  0.
   416  4.15  0.  0.  0.
   417  4.16  0.  0.  0.
   418  4.17  0.  0.  0.
   419  4.18  0.  0.  0.
   420  4.19  0.  0.  0.
   421  4.20  0.  0.  0.
   422  4.21  0.  0.  0.
   423  4.22  0.  0.  0.
   424  4.23  0.  0.  0.
   425  4.24  0.  0.  0.
   426  4.25  0.  0.  0.
   427  4.26  0.  0.  0.
   428  4.27  0.  0.  0.
   429  4.28  0.  0.  0.
   430  4.29  0.  0.  0.
   431  4.30  0.  0.  0.
   432  4.31  0.  0.  0.
   433  4.32  0.  0.  0.
   434  4.33  0.  0.  0.
   435  4.34  0.  0.  0.
   436  4.35  0.  0.  0.
   437  4.36  0.  0.  0.
   438  4.37  0.  0.  0.
   439  4.38  0.  0.  0.
   440  4.39  0.  0.  0.
   441  4.40  0.  0.  0.
   442  4.41  0.  0.  0.
   443  4.42  0.  0.  0.
   444  4.43  0.  0.  0.
   445  4.44  0.  0.  0.
   446  4.45  0.  0.  0.
   447  4.46  0.  0.  0.
   448  4.47  0.  0.  0.
   449  4.48  0.  0.  0.
   450  4.49  0.  0.  0.
   451  4.50  0.  0.  0.
   452  4.51  0.  0.  0.
   453  4.52  0.  0.  0.
   454  4.53  0.  0.  0.
   455  4.54  0.  0.  0.
   456  4.55  0.  0.  0.
   457  4.56  0.  0.  0.
   458  4.57  0.  0.  0.
   459  4.58  0.  0.  0.
   460  4.59  0.  0.  0.
   461  4.60  0.  0.  0.
   462  4.61  0.  0.  0.
   463  4.62  0.  0.  0.
   464  4.63  0.  0.  0.
   465  4.64  0.  0.  0.
   466  4.65  0.  0.  0.
   467  4.66  0.  0.  0.
   468  4.67  0.  0.  0.
   469  4.68  0.  0.  0.
   470  4.69  0.  0.  0.
   471  4.70  0.  0.  0.
   472  4.71  0.  0.  0.
   473  4.72  0.  0.  0.
   474  4.73  0.  0.  0.
   475  4.74  0.  0.  0.
   476  4.75  0.  0.  0.
   477  4.76  0.  0.  0.
   478  4.77  0.  0.  0.
   479  4.78  0.  0.  0.
   480  4.79  0.  0.  0.
   481  4.80  0.  0.  0.
   482  4.81  0.  0.  0.
   483  4.82  0.  0.  0.
   484  4.83  0.  0.  0.
   485  4.84  0.  0.  0.
   486  4.85  0.  0.  0.
   487  4.86  0.  0.  0.
   488  4.87  0.  0.  0.
   489  4.88  0.  0.  0.
   490  4.89  0.  0.  0.
   491  4.90  0.  0.  0.
   492  4.91  0.  0.  0.
   493  4.92  0.  0.  0.
   494  4.93  0.  0.  0.
   495  4.94  0.  0.  0.
   496  4.95  0.  0.  0.
   497  4.96  0.  0.  0.
   498  4.97  0.  0.  0.
   499  4.98  0.  0.  0.
   500  4.99  0.  0.  0.
   501  5.00  0.  0.  0.
   502  5.01  0.  0.  0.
   503  5.02  0.  0.  0.
   504  5.03  0.  0.  0.
   505  5.04  0.  0.  0.
   506  5.05  0.  0.  0.
   507  5.06  0.  0.  0.
   508  5.07  0.  0.  0.
   509  5.08  0.  0.  0.
   510  5.09  0.  0.  0.
   511  5.10  0.  0.  0.
   512  5.11  0.  0.  0.
   513  5.12  0.  0.  0.
   514  5.13  0.  0.  0.
   515  5.14  0.  0.  0.
   516  5.15  0.  0.  0.
   517  5.16  0.  0.  0.
   518  5.17  0.  0.  0.
   519  5.18  0.  0.  0.
   520  5.19  0.  0.  0.
   521  5.20  0.  0.  0.
   522  5.21  0.  0.  0.
   523  5.22  0.  0.  0.
   524  5.23  0.  0.  0.
   525  5.24  0.  0.  0.
   526  5.25  0.  0.  0.
   527  5.26  0.  0.  0.
   528  5.27  0.  0.  0.
   529  5.28  0.  0.  0.
   530  5.29  0.  0.  0.
   531  5.30  0.  0.  0.
   532  5.31  0.  0.  0.
   533  5.32  0.  0.  0.
   534  5.33  0.  0.  0.
   535  5.34  0.  0.  0.
   536  5.35  0.  0.  0.
   537  5.36  0.  0.  0.
   538  5.37  0.  0.  0.
   539  5.38  0.  0.  0.
   540  5.39  0.  0.  0.
   541  5.40  0.  0.  0.
   542  5.41  0.  0.  0.
   543  5.42  0.  0.  0.
   544  5.43  0.  0.  0.
   545  5.44  0.  0.  0.
   546  5.45  0.  0.  0.
   547  5.46  0.  0.  0.
   548  5.47  0.  0.  0.
   549  5.48  0.  0.  0.
   550  5.49  0.  0.  0.
   551  5.50  0.  0.  0.
   552  5.51  0.  0.  0.
   553  5.52  0.  0.  0.
   554  5.53  0.  0.  0.
   555  5.54  0.  0.  0.
   556  5.55  0.  0.  0.
   557  5.56  0.  0.  0.
   558  5.57  0.  0.  0.
   559  5.58  0.  0.  0.
   560  5.59  0.  0.  0.
   561  5.60  0.  0.  0.
   562  5.61  0.  0.  0.
   563  5.62  0.  0.  0.
   564  5.63  0.  0.  0.
   565  5.64  0.  0.  0.
   566  5.65  0.  0.  0.
   567  5.66  0.  0.  0.
   568  5.67  0.  0.  0.
   569  5.68  0.  0.  0.
   570  5.69  0.  0.  0.
   571  5.70  0.  0.  0.
   572  5.71  0.  0.  0.
   573  5.72  0.  0.  0.
   574  5.73  0.  0.  0.
   575  5.74  0.  0.  0.
   576  5.75  0.  0.  0.
   577  5.76  0.  0.  0.
   578  5.77  0.  0.  0.
   579  5.78  0.  0.  0.
   580  5.79  0.  0.  0.
   581  5.80  0.  0.  0.
   582  5.81  0.  0.  0.
   583  5.82  0.  0.  0.
   584  5.83  0.  0.  0.
   585  5.84  0.  0.  0.
   586  5.85  0.  0.  0.
   587  5.86  0.  0.  0.
   588  5.87  0.  0.  0.
   589  5.88  0.  0.  0.
   590  5.89  0.  0.  0.
   591  5.90  0.  0.  0.
   592  5.91  0.  0.  0.
   593  5.92  0.  0.  0.
   594  5.93  0.  0.  0.
   595  5.94  0.  0.  0.
   596  5.95  0.  0.  0.
   597  5.96  0.  0.  0.
   598  5.97  0.  0.  0.
   599  5.98  0.  0.  0.
   600  5.99  0.  0.  0.
   1                         5.9056863379352E+00 -1.8921123330405E+00  1.1304995025555E-01 -7.2531910142755E-03
     1  0.0000000000000E+00 -3.7044180306589E-08 -1.4125713300450E-08 -2.1160047602997E-08 -3.1862025567930E-07
     2  1.0000000000000E-02  4.0216751729160E-03  5.1189474189451E-04  3.9344555615642E-03 -6.9398502558776E-03
     3  2.0000000000000E-02  1.6063243782837E-02  2.0545436710075E-03  1.5683937384048E-02 -2.7559975717986E-02
     4  3.0000000000000E-02  3.6053946247722E-02  4.6485702093694E-03  3.5087018484095E-02 -6.1268416353580E-02
     5  4.0000000000000E-02  6.3874581235329E-02  8.3274543618390E-03  6.1875431776706E-02 -1.0709940378099E-01
     6  5.0000000000000E-02  9.9355697656611E-02  1.3136228544017E-02  9.5675303000790E-02 -1.6374384243650E-01
     7  6.0000000000000E-02  1.4227524933778E-01  1.9129719154490E-02  1.3600900495358E-01 -2.2959047943722E-01
     8  7.0000000000000E-02  1.9235588863660E-01  2.6370398233008E-02  1.8229775189697E-01 -3.0277632574304E-01
     9  8.0000000000000E-02  2.4926211231254E-01  3.4925923671946E-02  2.3386507415909E-01 -3.8124457260112E-01
    10  9.0000000000000E-02  3.1259750073390E-01  4.4866457602757E-02  2.8994132527830E-01 -4.6280799296647E-01
    11  1.0000000000000E-01  3.8190230871058E-01  5.6261860339080E-02  3.4966937637864E-01 -5.4521563690476E-01
    12  1.1000000000000E-01  4.5665167199631E-01  6.9178861328507E-02  4.1211164411355E-01 -6.2622052944375E-01
    13  1.2000000000000E-01  5.3625468737373E-01  8.3678308789385E-02  4.7625857923023E-01 -7.0364606251803E-01
    14  1.3000000000000E-01  6.2005460625595E-01  9.9812596078438E-02  5.4103871285115E-01 -7.7544884002509E-01
    15  1.4000000000000E-01  7.0733035241361E-01  1.1762335548550E-01  6.0533031768503E-01 -8.3977588391371E-01
    16  1.5000000000000E-01  7.9729953472890E-01  1.3713949936185E-01  6.6797469278246E-01 -8.9501433396646E-01
    17  1.6000000000000E-01  8.8912307716906E-01  1.5837567466934E-01  7.2779102478819E-01 -9.3983206599682E-01
    18  1.7000000000000E-01  9.8191153221692E-01  1.8133118071539E-01  7.8359271792327E-01 -9.7320800151870E-01
    19  1.8000000000000E-01  1.0747330828578E+00  2.0598938163909E-01  8.3420502146800E-01 -9.9445127340650E-01
    20  1.9000000000000E-01  1.1666231741966E+00  2.3231762583459E-01  8.7848371983114E-01 -1.0032088318763E+00
    21  2.0000000000000E-01  1.2565956513107E+00  2.6026766468666E-01  9.1533458901766E-01 -9.9946150742671E-01
    22  2.1000000000000E-01  1.3436552175280E+00  2.8977654351713E-01  9.4373326708761E-01 -9.8350897582709E-01
    23  2.2000000000000E-01  1.4268109694239E+00  3.2076791925656E-01  9.6274513759211E-01 -9.5594447862317E-01
    24  2.3000000000000E-01  1.5050907137702E+00  3.5315374278515E-01  9.7154478632810E-01 -9.1762052544501E-01
    25  2.4000000000000E-01  1.5775557295643E+00  3.8683622978298E-01  9.6943456513881E-01 -8.6960712747817E-01
    26  2.5000000000000E-01  1.6433156069026E+00  4.2171003285772E-01  9.5586178358229E-01 -8.1314437248993E-01
    27  2.6000000000000E-01  1.7015427752699E+00  4.5766452012801E-01  9.3043405131821E-01 -7.4959134079306E-01
    28  2.7000000000000E-01  1.7514863277841E+00  4.9458606165293E-01  8.9293231173770E-01 -6.8037347123498E-01
    29  2.8000000000000E-01  1.7924847555638E+00  5.3236022528703E-01  8.4332114082956E-01 -6.0693051246057E-01
    30  2.9000000000000E-01  1.8239772276925E+00  5.7087378773017E-01  7.8175593412062E-01 -5.3066713626763E-01
    31  3.0000000000000E-01  1.8455130867200E+00  6.1001647459940E-01  7.0858666774372E-01 -4.5290814904932E-01
    32  3.1000000000000E-01  1.8567592762748E+00  6.4968235499282E-01  6.2435799572295E-01 -3.7486001949378E-01
    33  3.2000000000000E-01  1.8575054746844E+00  6.8977083081924E-01  5.2980553235961E-01 -2.9758015429449E-01
    34  3.3000000000000E-01  1.8476667746243E+00  7.3018717857755E-01  4.2584826364082E-01 -2.2195500973651E-01
    35  3.4000000000000E-01  1.8272838215016E+00  7.7084262062794E-01  3.1357713200271E-01 -1.4868773909435E-01
    36  3.5000000000000E-01  1.7965203999981E+00  8.1165392355820E-01  1.9423994141578E-01 -7.8295659071469E-02
    37  3.6000000000000E-01  1.7556585362604E+00  8.5254254221225E-01  6.9222831316095E-02 -1.1117389527383E-02
    38  3.7000000000000E-01  1.7050912598295E+00  8.9343334848748E-01 -5.9971334972719E-02  5.2670903387196E-02
    39  3.8000000000000E-01  1.6453132417903E+00  9.3425300330118E-01 -1.9174723226486E-01  1.1303113270233E-01
    40  3.9000000000000E-01  1.5769095911259E+00  9.7492804738713E-01 -3.2444347230492E-01  1.7003212046091E-01
    41  4.0000000000000E-01  1.5005431474698E+00  1.0153828010926E+00 -4.5636056059579E-01  2.2381327786772E-01
    42  4.1000000000000E-01  1.4169406532250E+00  1.0555371744802E+00 -5.8578978341390E-01  2.7454502520890E-01
    43  4.2000000000000E-01  1.3268782196598E+00  1.0953044962926E+00 -7.1104236584506E-01  3.2238800705247E-01
    44  4.3000000000000E-01  1.2311665188300E+00  1.1345894733514E+00 -8.3047822943570E-01  3.6745323904060E-01
    45  4.4000000000000E-01  1.1306361352877E+00  1.1732863905271E+00 -9.4253368554493E-01  4.0976531354174E-01
    46  4.5000000000000E-01  1.0261234983357E+00  1.2112776555002E+00 -1.0457474276962E+00  4.4923069147800E-01
    47  4.6000000000000E-01  9.1845778745852E-01  1.2484327822660E+00 -1.1387842324676E+00  4.8561291923507E-01
    48  4.7000000000000E-01  8.0844916144981E-01  1.2846078930265E+00 -1.2204558423882E+00  5.1851633873344E-01
    49  4.8000000000000E-01  6.9687860713991E-01  1.3196458002218E+00 -1.2897385839603E+00  5.4737951486449E-01
    50  4.9000000000000E-01  5.8448963846658E-01  1.3533767095957E+00 -1.3457873667819E+00  5.7147920000639E-01
    51  5.0000000000000E-01  4.7198200329625E-01  1.3856195621008E+00 -1.3879458128120E+00  5.8994520530895E-01
    52  5.1000000000000E-01  3.6000747660461E-01  1.4161840079624E+00 -1.4157523747408E+00  6.0178607003635E-01
    53  5.2000000000000E-01  2.4916773730046E-01  1.4448729812480E+00 -1.4289424155868E+00  6.0592493212873E-01
    54  5.3000000000000E-01  1.4001424519412E-01  1.4714858187632E+00 -1.4274463342885E+00  6.0124452470410E-01
    55  5.4000000000000E-01  3.3049957449572E-02  1.4958218439722E+00 -1.4113839304706E+00  5.8663977396627E-01
    56  5.5000000000000E-01 -7.1267346705125E-02  1.5176843158235E+00 -1.3810553021322E+00  5.6107607267042E-01
    57  5.6000000000000E-01 -1.7252042544394E-01  1.5368846246906E+00 -1.3369286594073E+00  5.2365096729316E-01
    58  5.7000000000000E-01 -2.7032695984043E-01  1.5532466038605E+00 -1.2796255128468E+00  4.7365674155749E-01
    59  5.8000000000000E-01 -3.6433334286967E-01  1.5666108157241E+00 -1.2099037534371E+00  4.1064121644236E-01