Fm    ONCVPSP-4.0.1  r_core=   1.15134   1.15134   1.20057   1.35316
100.0000     40.0000      230730    zatom,zion,pspd
8      11   3     4   600     0    pspcod,pspxc,lmax,lloc,mmax,r2well
5.99000000  5.00000000  0.00000000    rchrg fchrg qchrg
3     2     2     2     0    nproj
1     1           extension_switch
0                         2.1281620282341E+01  2.7951943062912E+00 -1.8076852132153E+00
1  0.0000000000000E+00 -1.2941598948046E-07 -3.8784952560711E-07 -2.0161921243655E-08
2  1.0000000000000E-02  1.6420157560218E-01  7.3926424615838E-02  3.7263260508437E-02
3  2.0000000000000E-02  3.2686515599893E-01  1.4535570842414E-01  7.4367885209374E-02
4  3.0000000000000E-02  4.8648321477844E-01  2.1187087184227E-01  1.1115917261297E-01
5  4.0000000000000E-02  6.4160819190892E-01  2.7121238866625E-01  1.4749014900350E-01
6  5.0000000000000E-02  7.9088008456659E-01  3.2134984688194E-01  1.8322508576917E-01
7  6.0000000000000E-02  9.3305126561393E-01  3.6054542543623E-01  2.1824261630411E-01
8  7.0000000000000E-02  1.0670077657507E+00  3.8740693871964E-01  2.5243834406704E-01
9  8.0000000000000E-02  1.1917863847759E+00  4.0092858836142E-01  2.8572685354370E-01
10  9.0000000000000E-02  1.3065871497174E+00  4.0051801858040E-01  3.1804305947750E-01
11  1.0000000000000E-01  1.4107808070419E+00  3.8600877956850E-01  3.4934285584589E-01
12  1.1000000000000E-01  1.5039112163400E+00  3.5765784408369E-01  3.7960305360684E-01
13  1.2000000000000E-01  1.5856926969873E+00  3.1612837525561E-01  4.0882062409967E-01
14  1.3000000000000E-01  1.6560025603627E+00  2.6245848778415E-01  4.3701129202685E-01
15  1.4000000000000E-01  1.7148692314382E+00  1.9801725981386E-01  4.6420754706994E-01
16  1.5000000000000E-01  1.7624565185165E+00  1.2444971948587E-01  4.9045616538364E-01
17  1.6000000000000E-01  1.7990447227679E+00  4.3612931051383E-02  5.1581535057026E-01
18  1.7000000000000E-01  1.8250093850722E+00 -4.2494374470487E-02  5.4035161752026E-01
19  1.8000000000000E-01  1.8407985425856E+00 -1.3180595166977E-01  5.6413655116003E-01
20  1.9000000000000E-01  1.8469094087089E+00 -2.2226317731198E-01  5.8724357533305E-01
21  2.0000000000000E-01  1.8438653963044E+00 -3.1188835136838E-01  6.0974486463625E-01
22  2.1000000000000E-01  1.8321943750003E+00 -3.9885342798272E-01  6.3170852415129E-01
23  2.2000000000000E-01  1.8124089904939E+00 -4.8154162965027E-01  6.5319614898663E-01
24  2.3000000000000E-01  1.7849897794664E+00 -5.5859968094369E-01  6.7426085792912E-01
25  2.4000000000000E-01  1.7503716917879E+00 -6.2897876552257E-01  6.9494587402932E-01
26  2.5000000000000E-01  1.7089344869180E+00 -6.9196274780196E-01  7.1528370050974E-01
27  2.6000000000000E-01  1.6609973094378E+00 -7.4718269183859E-01  7.3529591400704E-01
28  2.7000000000000E-01  1.6068175757760E+00 -7.9461723601991E-01  7.5499356993726E-01
29  2.8000000000000E-01  1.5465941271097E+00 -8.3457892305857E-01  7.7437818784059E-01
30  2.9000000000000E-01  1.4804744289575E+00 -8.6768712013933E-01  7.9344325904216E-01
31  3.0000000000000E-01  1.4085654328552E+00 -8.9482867363669E-01  8.1217619592297E-01
32  3.1000000000000E-01  1.3309475660467E+00 -9.1710790747594E-01  8.3056062249267E-01
33  3.2000000000000E-01  1.2476911870471E+00 -9.3578797653466E-01  8.4857889061670E-01
34  3.3000000000000E-01  1.1588747431186E+00 -9.5222591150877E-01  8.6621469581949E-01
35  3.4000000000000E-01  1.0646037940008E+00 -9.6780392738412E-01  8.8345566150644E-01
36  3.5000000000000E-01  9.6503002733327E-01 -9.8385970547154E-01  9.0029576094415E-01
37  3.6000000000000E-01  8.6036938652990E-01 -1.0016183940442E+00  9.1673745239994E-01
38  3.7000000000000E-01  7.5091846150679E-01 -1.0221290039873E+00  9.3279341423216E-01
39  3.8000000000000E-01  6.3706835542166E-01 -1.0462077065266E+00  9.4848778297907E-01
40  3.9000000000000E-01  5.1931533397253E-01 -1.0743902767961E+00  9.6385681795543E-01
41  4.0000000000000E-01  3.9826768419296E-01 -1.1068955800064E+00  9.7894893969376E-01
42  4.1000000000000E-01  2.7464835240390E-01 -1.1436015797026E+00  9.9382411578227E-01
43  4.2000000000000E-01  1.4929309055731E-01 -1.1840348759755E+00  1.0085525951753E+00
44  4.3000000000000E-01  2.3144010511003E-02 -1.2273742734923E+00  1.0232130197490E+00
45  4.4000000000000E-01 -1.0276137967802E-01 -1.2724683540066E+00  1.0378899686011E+00
46  4.5000000000000E-01 -2.2730541118793E-01 -1.3178665053352E+00  1.0526710152436E+00
47  4.6000000000000E-01 -3.4930935205501E-01 -1.3618623581640E+00  1.0676433993901E+00
48  4.7000000000000E-01 -4.6755580916055E-01 -1.4025481219990E+00  1.0828904326024E+00
49  4.8000000000000E-01 -5.8081374899197E-01 -1.4378779090086E+00  1.0984877699038E+00
50  4.9000000000000E-01 -6.8786534904200E-01 -1.4657378040019E+00  1.1144996870517E+00
51  5.0000000000000E-01 -7.8753381809615E-01 -1.4840201921288E+00  1.1309755051831E+00
52  5.1000000000000E-01 -8.7871128156700E-01 -1.4906997015997E+00  1.1479463008962E+00
53  5.2000000000000E-01 -9.6038581883691E-01 -1.4839080617858E+00  1.1654220306805E+00
54  5.3000000000000E-01 -1.0316667633913E+00 -1.4620052187682E+00  1.1833891843117E+00
55  5.4000000000000E-01 -1.0918074322315E+00 -1.4236441883311E+00  1.2018090629840E+00
56  5.5000000000000E-01 -1.1402245363272E+00 -1.3678273545372E+00  1.2206167553331E+00
57  5.6000000000000E-01 -1.1765136352983E+00 -1.2939522310909E+00  1.2397208590359E+00
58  5.7000000000000E-01 -1.2004601327344E+00 -1.2018450804379E+00  1.2590039684073E+00
59  5.8000000000000E-01 -1.2120454584578E+00 -1.0917812173540E+00  1.2783239204615E+00
60  5.9000000000000E-01 -1.2114482449012E+00 -9.6449129315324E-01  1.2975157644129E+00
61  6.0000000000000E-01 -1.1990404706144E+00 -8.2115334596717E-01  1.3163943936747E+00
62  6.1000000000000E-01 -1.1753787085778E+00 -6.6337089367752E-01  1.3347577561167E+00
63  6.2000000000000E-01 -1.1411907745389E+00 -4.9313782110176E-01  1.3523905386110E+00
64  6.3000000000000E-01 -1.0973582153636E+00 -3.1279125491330E-01  1.3690682064850E+00
65  6.4000000000000E-01 -1.0448952043909E+00 -1.2495401301342E-01  1.3845612680279E+00
66  6.5000000000000E-01 -9.8492451571723E-01  6.7531453744609E-02  1.3986396290252E+00
67  6.6000000000000E-01 -9.1865132887003E-01  2.6167545130890E-01  1.4110769025790E+00
68  6.7000000000000E-01 -8.4733566713520E-01  4.5441741003476E-01  1.4216545451404E+00
69  6.8000000000000E-01 -7.7226429564523E-01  6.4270378463288E-01  1.4301657004105E+00
70  6.9000000000000E-01 -6.9472289912784E-01  8.2356503607118E-01  1.4364186480399E+00
71  7.0000000000000E-01 -6.1596932494678E-01  9.9418932535128E-01  1.4402397731589E+00
72  7.1000000000000E-01 -5.3720861679411E-01  1.1519907095873E+00  1.4414759948179E+00
73  7.2000000000000E-01 -4.5957048107955E-01  1.2946698637215E+00  1.4399966154172E+00
74  7.3000000000000E-01 -3.8408972549955E-01  1.4202656461275E+00  1.4356945780744E+00
75  7.4000000000000E-01 -3.1169009184366E-01  1.5271961709431E+00  1.4284871435159E+00
76  7.5000000000000E-01 -2.4317177765105E-01  1.6142884303375E+00  1.4183160213902E+00
77  7.6000000000000E-01 -1.7920280894323E-01  1.6807959112202E+00  1.4051470118645E+00
78  7.7000000000000E-01 -1.2031429401596E-01  1.7264040580139E+00  1.3889692310702E+00
79  7.8000000000000E-01 -6.6899461089478E-02  1.7512238311668E+00  1.3697940076429E+00
80  7.9000000000000E-01 -1.9216265045885E-02  1.7557739859901E+00  1.3476535466839E+00
81  8.0000000000000E-01  2.2606755489435E-02  1.7409530355358E+00  1.3225994615843E+00
82  8.1000000000000E-01  5.8561776515646E-02  1.7080021536796E+00  1.2947012731612E+00
83  8.2000000000000E-01  8.8750615886805E-02  1.6584605116395E+00  1.2640449695459E+00
84  8.3000000000000E-01  1.1337180936985E-01  1.5941147166054E+00  1.2307317095665E+00
85  8.4000000000000E-01  1.3270638024863E-01  1.5169441312767E+00  1.1948767375079E+00
86  8.5000000000000E-01  1.4710285032964E-01  1.4290638969043E+00  1.1566085588465E+00
87  8.6000000000000E-01  1.5696202277315E-01  1.3326674614436E+00  1.1160684057266E+00
88  8.7000000000000E-01  1.6272203100450E-01  1.2299703326018E+00  1.0734099985801E+00
89  8.8000000000000E-01  1.6484409557487E-01  1.1231566390105E+00  1.0287995874680E+00
90  8.9000000000000E-01  1.6379936529471E-01  1.0143298993620E+00  9.8241623455241E-01
91  9.0000000000000E-01  1.6005714371576E-01  9.0546917843551E-01  9.3445227867254E-01
92  9.1000000000000E-01  1.5407472076597E-01  7.9839156073780E-01  8.8511390531282E-01
93  9.2000000000000E-01  1.4628894578932E-01  6.9472160776237E-01  8.3462173120577E-01
94  9.3000000000000E-01  1.3710959602781E-01  5.9586819434484E-01  7.8321130314447E-01
95  9.4000000000000E-01  1.2691451708556E-01  5.0300885363652E-01  7.3113340583027E-01
96  9.5000000000000E-01  1.1604644208513E-01  4.1708150828042E-01  6.7865407407271E-01
97  9.6000000000000E-01  1.0481133651429E-01  3.3878323575581E-01  6.2605421047940E-01
98  9.7000000000000E-01  9.3478068015585E-02  2.6857551540900E-01  5.7362872076812E-01
99  9.8000000000000E-01  8.2279165760537E-02  2.0669523848074E-01  5.2168509461362E-01
100  9.9000000000000E-01  7.1412413094060E-02  1.5317063388320E-01  4.7054137989965E-01
101  1.0000000000000E+00  6.1043009661990E-02  1.0784117307465E-01  4.2052352157372E-01
102  1.0100000000000E+00  5.1306044432388E-02  7.0380466867575E-02  3.7196206201890E-01
103  1.0200000000000E+00  4.2309037557471E-02  4.0321153505650E-02  3.2518822690443E-01
104  1.0300000000000E+00  3.4134335075532E-02  1.7080797632448E-02  2.8052944766413E-01
105  1.0400000000000E+00  2.6841173813776E-02 -1.2130739386550E-05  2.3830439789000E-01
106  1.0500000000000E+00  2.0467272200758E-02 -1.1693054631844E-02  1.9881764489905E-01
107  1.0600000000000E+00  1.5029843511079E-02 -1.8737631555737E-02  1.6235403841228E-01
108  1.0700000000000E+00  1.0525968849015E-02 -2.1940300083886E-02  1.2917297473301E-01
109  1.0800000000000E+00  6.9322535654837E-03 -2.2095714618873E-02  9.9502642774724E-02
110  1.0900000000000E+00  4.2042225984938E-03 -1.9982397438147E-02  7.3534772712993E-02
111  1.1000000000000E+00  2.2526862631656E-03 -1.6407181854175E-02  5.1399997732877E-02
112  1.1100000000000E+00  9.3784917498895E-04 -1.2210426711648E-02  3.3155719122707E-02
113  1.1200000000000E+00  1.9512749353686E-04 -7.9296079888580E-03  1.8899078517798E-02
114  1.1300000000000E+00 -8.8808689264206E-05 -4.1027312574455E-03  8.6631869002684E-03
115  1.1400000000000E+00 -8.0508891747395E-05 -1.2735602300387E-03  2.4006379000535E-03
116  1.1500000000000E+00 -4.0925984346941E-06 -3.9382262353967E-05  6.6136615427125E-05
117  1.1600000000000E+00 -6.0422650815568E-07 -6.1703778752192E-06  1.0512487287455E-05
118  1.1700000000000E+00  8.4079185770816E-08  1.0288374547332E-06 -1.8395839714076E-06
119  1.18  0.  0.  0.
120  1.19  0.  0.  0.
121  1.20  0.  0.  0.
122  1.21  0.  0.  0.
123  1.22  0.  0.  0.
124  1.23  0.  0.  0.
125  1.24  0.  0.  0.
126  1.25  0.  0.  0.
127  1.26  0.  0.  0.
128  1.27  0.  0.  0.
129  1.28  0.  0.  0.
130  1.29  0.  0.  0.
131  1.30  0.  0.  0.
132  1.31  0.  0.  0.
133  1.32  0.  0.  0.
134  1.33  0.  0.  0.
135  1.34  0.  0.  0.
136  1.35  0.  0.  0.
137  1.36  0.  0.  0.
138  1.37  0.  0.  0.
139  1.38  0.  0.  0.
140  1.39  0.  0.  0.
141  1.40  0.  0.  0.
142  1.41  0.  0.  0.
143  1.42  0.  0.  0.
144  1.43  0.  0.  0.
145  1.44  0.  0.  0.
146  1.45  0.  0.  0.
147  1.46  0.  0.  0.
148  1.47  0.  0.  0.
149  1.48  0.  0.  0.
150  1.49  0.  0.  0.
151  1.50  0.  0.  0.
152  1.51  0.  0.  0.
153  1.52  0.  0.  0.
154  1.53  0.  0.  0.
155  1.54  0.  0.  0.
156  1.55  0.  0.  0.
157  1.56  0.  0.  0.
158  1.57  0.  0.  0.
159  1.58  0.  0.  0.
160  1.59  0.  0.  0.
161  1.60  0.  0.  0.
162  1.61  0.  0.  0.
163  1.62  0.  0.  0.
164  1.63  0.  0.  0.
165  1.64  0.  0.  0.
166  1.65  0.  0.  0.
167  1.66  0.  0.  0.
168  1.67  0.  0.  0.
169  1.68  0.  0.  0.
170  1.69  0.  0.  0.
171  1.70  0.  0.  0.
172  1.71  0.  0.  0.
173  1.72  0.  0.  0.
174  1.73  0.  0.  0.
175  1.74  0.  0.  0.
176  1.75  0.  0.  0.
177  1.76  0.  0.  0.
178  1.77  0.  0.  0.
179  1.78  0.  0.  0.
180  1.79  0.  0.  0.
181  1.80  0.  0.  0.
182  1.81  0.  0.  0.
183  1.82  0.  0.  0.
184  1.83  0.  0.  0.
185  1.84  0.  0.  0.
186  1.85  0.  0.  0.
187  1.86  0.  0.  0.
188  1.87  0.  0.  0.
189  1.88  0.  0.  0.
190  1.89  0.  0.  0.
191  1.90  0.  0.  0.
192  1.91  0.  0.  0.
193  1.92  0.  0.  0.
194  1.93  0.  0.  0.
195  1.94  0.  0.  0.
196  1.95  0.  0.  0.
197  1.96  0.  0.  0.
198  1.97  0.  0.  0.
199  1.98  0.  0.  0.
200  1.99  0.  0.  0.
201  2.00  0.  0.  0.
202  2.01  0.  0.  0.
203  2.02  0.  0.  0.
204  2.03  0.  0.  0.
205  2.04  0.  0.  0.
206  2.05  0.  0.  0.
207  2.06  0.  0.  0.
208  2.07  0.  0.  0.
209  2.08  0.  0.  0.
210  2.09  0.  0.  0.
211  2.10  0.  0.  0.
212  2.11  0.  0.  0.
213  2.12  0.  0.  0.
214  2.13  0.  0.  0.
215  2.14  0.  0.  0.
216  2.15  0.  0.  0.
217  2.16  0.  0.  0.
218  2.17  0.  0.  0.
219  2.18  0.  0.  0.
220  2.19  0.  0.  0.
221  2.20  0.  0.  0.
222  2.21  0.  0.  0.
223  2.22  0.  0.  0.
224  2.23  0.  0.  0.
225  2.24  0.  0.  0.
226  2.25  0.  0.  0.
227  2.26  0.  0.  0.
228  2.27  0.  0.  0.
229  2.28  0.  0.  0.
230  2.29  0.  0.  0.
231  2.30  0.  0.  0.
232  2.31  0.  0.  0.
233  2.32  0.  0.  0.
234  2.33  0.  0.  0.
235  2.34  0.  0.  0.
236  2.35  0.  0.  0.
237  2.36  0.  0.  0.
238  2.37  0.  0.  0.
239  2.38  0.  0.  0.
240  2.39  0.  0.  0.
241  2.40  0.  0.  0.
242  2.41  0.  0.  0.
243  2.42  0.  0.  0.
244  2.43  0.  0.  0.
245  2.44  0.  0.  0.
246  2.45  0.  0.  0.
247  2.46  0.  0.  0.
248  2.47  0.  0.  0.
249  2.48  0.  0.  0.
250  2.49  0.  0.  0.
251  2.50  0.  0.  0.
252  2.51  0.  0.  0.
253  2.52  0.  0.  0.
254  2.53  0.  0.  0.
255  2.54  0.  0.  0.
256  2.55  0.  0.  0.
257  2.56  0.  0.  0.
258  2.57  0.  0.  0.
259  2.58  0.  0.  0.
260  2.59  0.  0.  0.
261  2.60  0.  0.  0.
262  2.61  0.  0.  0.
263  2.62  0.  0.  0.
264  2.63  0.  0.  0.
265  2.64  0.  0.  0.
266  2.65  0.  0.  0.
267  2.66  0.  0.  0.
268  2.67  0.  0.  0.
269  2.68  0.  0.  0.
270  2.69  0.  0.  0.
271  2.70  0.  0.  0.
272  2.71  0.  0.  0.
273  2.72  0.  0.  0.
274  2.73  0.  0.  0.
275  2.74  0.  0.  0.
276  2.75  0.  0.  0.
277  2.76  0.  0.  0.
278  2.77  0.  0.  0.
279  2.78  0.  0.  0.
280  2.79  0.  0.  0.
281  2.80  0.  0.  0.
282  2.81  0.  0.  0.
283  2.82  0.  0.  0.
284  2.83  0.  0.  0.
285  2.84  0.  0.  0.
286  2.85  0.  0.  0.
287  2.86  0.  0.  0.
288  2.87  0.  0.  0.
289  2.88  0.  0.  0.
290  2.89  0.  0.  0.
291  2.90  0.  0.  0.
292  2.91  0.  0.  0.
293  2.92  0.  0.  0.
294  2.93  0.  0.  0.
295  2.94  0.  0.  0.
296  2.95  0.  0.  0.
297  2.96  0.  0.  0.
298  2.97  0.  0.  0.
299  2.98  0.  0.  0.
300  2.99  0.  0.  0.
301  3.00  0.  0.  0.
302  3.01  0.  0.  0.
303  3.02  0.  0.  0.
304  3.03  0.  0.  0.
305  3.04  0.  0.  0.
306  3.05  0.  0.  0.
307  3.06  0.  0.  0.
308  3.07  0.  0.  0.
309  3.08  0.  0.  0.
310  3.09  0.  0.  0.
311  3.10  0.  0.  0.
312  3.11  0.  0.  0.
313  3.12  0.  0.  0.
314  3.13  0.  0.  0.
315  3.14  0.  0.  0.
316  3.15  0.  0.  0.
317  3.16  0.  0.  0.
318  3.17  0.  0.  0.
319  3.18  0.  0.  0.
320  3.19  0.  0.  0.
321  3.20  0.  0.  0.
322  3.21  0.  0.  0.
323  3.22  0.  0.  0.
324  3.23  0.  0.  0.
325  3.24  0.  0.  0.
326  3.25  0.  0.  0.
327  3.26  0.  0.  0.
328  3.27  0.  0.  0.
329  3.28  0.  0.  0.
330  3.29  0.  0.  0.
331  3.30  0.  0.  0.
332  3.31  0.  0.  0.
333  3.32  0.  0.  0.
334  3.33  0.  0.  0.
335  3.34  0.  0.  0.
336  3.35  0.  0.  0.
337  3.36  0.  0.  0.
338  3.37  0.  0.  0.
339  3.38  0.  0.  0.
340  3.39  0.  0.  0.
341  3.40  0.  0.  0.
342  3.41  0.  0.  0.
343  3.42  0.  0.  0.
344  3.43  0.  0.  0.
345  3.44  0.  0.  0.
346  3.45  0.  0.  0.
347  3.46  0.  0.  0.
348  3.47  0.  0.  0.
349  3.48  0.  0.  0.
350  3.49  0.  0.  0.
351  3.50  0.  0.  0.
352  3.51  0.  0.  0.
353  3.52  0.  0.  0.
354  3.53  0.  0.  0.
355  3.54  0.  0.  0.
356  3.55  0.  0.  0.
357  3.56  0.  0.  0.
358  3.57  0.  0.  0.
359  3.58  0.  0.  0.
360  3.59  0.  0.  0.
361  3.60  0.  0.  0.
362  3.61  0.  0.  0.
363  3.62  0.  0.  0.
364  3.63  0.  0.  0.
365  3.64  0.  0.  0.
366  3.65  0.  0.  0.
367  3.66  0.  0.  0.
368  3.67  0.  0.  0.
369  3.68  0.  0.  0.
370  3.69  0.  0.  0.
371  3.70  0.  0.  0.
372  3.71  0.  0.  0.
373  3.72  0.  0.  0.
374  3.73  0.  0.  0.
375  3.74  0.  0.  0.
376  3.75  0.  0.  0.
377  3.76  0.  0.  0.
378  3.77  0.  0.  0.
379  3.78  0.  0.  0.
380  3.79  0.  0.  0.
381  3.80  0.  0.  0.
382  3.81  0.  0.  0.
383  3.82  0.  0.  0.
384  3.83  0.  0.  0.
385  3.84  0.  0.  0.
386  3.85  0.  0.  0.
387  3.86  0.  0.  0.
388  3.87  0.  0.  0.
389  3.88  0.  0.  0.
390  3.89  0.  0.  0.
391  3.90  0.  0.  0.
392  3.91  0.  0.  0.
393  3.92  0.  0.  0.
394  3.93  0.  0.  0.
395  3.94  0.  0.  0.
396  3.95  0.  0.  0.
397  3.96  0.  0.  0.
398  3.97  0.  0.  0.
399  3.98  0.  0.  0.
400  3.99  0.  0.  0.
401  4.00  0.  0.  0.
402  4.01  0.  0.  0.
403  4.02  0.  0.  0.
404  4.03  0.  0.  0.
405  4.04  0.  0.  0.
406  4.05  0.  0.  0.
407  4.06  0.  0.  0.
408  4.07  0.  0.  0.
409  4.08  0.  0.  0.
410  4.09  0.  0.  0.
411  4.10  0.  0.  0.
412  4.11  0.  0.  0.
413  4.12  0.  0.  0.
414  4.13  0.  0.  0.
415  4.14  0.  0.  0.
416  4.15  0.  0.  0.
417  4.16  0.  0.  0.
418  4.17  0.  0.  0.
419  4.18  0.  0.  0.
420  4.19  0.  0.  0.
421  4.20  0.  0.  0.
422  4.21  0.  0.  0.
423  4.22  0.  0.  0.
424  4.23  0.  0.  0.
425  4.24  0.  0.  0.
426  4.25  0.  0.  0.
427  4.26  0.  0.  0.
428  4.27  0.  0.  0.
429  4.28  0.  0.  0.
430  4.29  0.  0.  0.
431  4.30  0.  0.  0.
432  4.31  0.  0.  0.
433  4.32  0.  0.  0.
434  4.33  0.  0.  0.
435  4.34  0.  0.  0.
436  4.35  0.  0.  0.
437  4.36  0.  0.  0.
438  4.37  0.  0.  0.
439  4.38  0.  0.  0.
440  4.39  0.  0.  0.
441  4.40  0.  0.  0.
442  4.41  0.  0.  0.
443  4.42  0.  0.  0.
444  4.43  0.  0.  0.
445  4.44  0.  0.  0.
446  4.45  0.  0.  0.
447  4.46  0.  0.  0.
448  4.47  0.  0.  0.
449  4.48  0.  0.  0.
450  4.49  0.  0.  0.
451  4.50  0.  0.  0.
452  4.51  0.  0.  0.
453  4.52  0.  0.  0.
454  4.53  0.  0.  0.
455  4.54  0.  0.  0.
456  4.55  0.  0.  0.
457  4.56  0.  0.  0.
458  4.57  0.  0.  0.
459  4.58  0.  0.  0.
460  4.59  0.  0.  0.
461  4.60  0.  0.  0.
462  4.61  0.  0.  0.
463  4.62  0.  0.  0.
464  4.63  0.  0.  0.
465  4.64  0.  0.  0.
466  4.65  0.  0.  0.
467  4.66  0.  0.  0.
468  4.67  0.  0.  0.
469  4.68  0.  0.  0.
470  4.69  0.  0.  0.
471  4.70  0.  0.  0.
472  4.71  0.  0.  0.
473  4.72  0.  0.  0.
474  4.73  0.  0.  0.
475  4.74  0.  0.  0.
476  4.75  0.  0.  0.
477  4.76  0.  0.  0.
478  4.77  0.  0.  0.
479  4.78  0.  0.  0.
480  4.79  0.  0.  0.
481  4.80  0.  0.  0.
482  4.81  0.  0.  0.
483  4.82  0.  0.  0.
484  4.83  0.  0.  0.
485  4.84  0.  0.  0.
486  4.85  0.  0.  0.
487  4.86  0.  0.  0.
488  4.87  0.  0.  0.
489  4.88  0.  0.  0.
490  4.89  0.  0.  0.
491  4.90  0.  0.  0.
492  4.91  0.  0.  0.
493  4.92  0.  0.  0.
494  4.93  0.  0.  0.
495  4.94  0.  0.  0.
496  4.95  0.  0.  0.
497  4.96  0.  0.  0.
498  4.97  0.  0.  0.
499  4.98  0.  0.  0.
500  4.99  0.  0.  0.
501  5.00  0.  0.  0.
502  5.01  0.  0.  0.
503  5.02  0.  0.  0.
504  5.03  0.  0.  0.
505  5.04  0.  0.  0.
506  5.05  0.  0.  0.
507  5.06  0.  0.  0.
508  5.07  0.  0.  0.
509  5.08  0.  0.  0.
510  5.09  0.  0.  0.
511  5.10  0.  0.  0.
512  5.11  0.  0.  0.
513  5.12  0.  0.  0.
514  5.13  0.  0.  0.
515  5.14  0.  0.  0.
516  5.15  0.  0.  0.
517  5.16  0.  0.  0.
518  5.17  0.  0.  0.
519  5.18  0.  0.  0.
520  5.19  0.  0.  0.
521  5.20  0.  0.  0.
522  5.21  0.  0.  0.
523  5.22  0.  0.  0.
524  5.23  0.  0.  0.
525  5.24  0.  0.  0.
526  5.25  0.  0.  0.
527  5.26  0.  0.  0.
528  5.27  0.  0.  0.
529  5.28  0.  0.  0.
530  5.29  0.  0.  0.
531  5.30  0.  0.  0.
532  5.31  0.  0.  0.
533  5.32  0.  0.  0.
534  5.33  0.  0.  0.
535  5.34  0.  0.  0.
536  5.35  0.  0.  0.
537  5.36  0.  0.  0.
538  5.37  0.  0.  0.
539  5.38  0.  0.  0.
540  5.39  0.  0.  0.
541  5.40  0.  0.  0.
542  5.41  0.  0.  0.
543  5.42  0.  0.  0.
544  5.43  0.  0.  0.
545  5.44  0.  0.  0.
546  5.45  0.  0.  0.
547  5.46  0.  0.  0.
548  5.47  0.  0.  0.
549  5.48  0.  0.  0.
550  5.49  0.  0.  0.
551  5.50  0.  0.  0.
552  5.51  0.  0.  0.
553  5.52  0.  0.  0.
554  5.53  0.  0.  0.
555  5.54  0.  0.  0.
556  5.55  0.  0.  0.
557  5.56  0.  0.  0.
558  5.57  0.  0.  0.
559  5.58  0.  0.  0.
560  5.59  0.  0.  0.
561  5.60  0.  0.  0.
562  5.61  0.  0.  0.
563  5.62  0.  0.  0.
564  5.63  0.  0.  0.
565  5.64  0.  0.  0.
566  5.65  0.  0.  0.
567  5.66  0.  0.  0.
568  5.67  0.  0.  0.
569  5.68  0.  0.  0.
570  5.69  0.  0.  0.
571  5.70  0.  0.  0.
572  5.71  0.  0.  0.
573  5.72  0.  0.  0.
574  5.73  0.  0.  0.
575  5.74  0.  0.  0.
576  5.75  0.  0.  0.
577  5.76  0.  0.  0.
578  5.77  0.  0.  0.
579  5.78  0.  0.  0.
580  5.79  0.  0.  0.
581  5.80  0.  0.  0.
582  5.81  0.  0.  0.
583  5.82  0.  0.  0.
584  5.83  0.  0.  0.
585  5.84  0.  0.  0.
586  5.85  0.  0.  0.
587  5.86  0.  0.  0.
588  5.87  0.  0.  0.
589  5.88  0.  0.  0.
590  5.89  0.  0.  0.
591  5.90  0.  0.  0.
592  5.91  0.  0.  0.
593  5.92  0.  0.  0.
594  5.93  0.  0.  0.
595  5.94  0.  0.  0.
596  5.95  0.  0.  0.
597  5.96  0.  0.  0.
598  5.97  0.  0.  0.
599  5.98  0.  0.  0.
600  5.99  0.  0.  0.
1                         6.2958773918098E+00 -1.7394265961480E+00
1  0.0000000000000E+00 -3.6958399174392E-08 -1.9060187154279E-08
2  1.0000000000000E-02  3.8963466673321E-03  3.3464142533005E-04
3  2.0000000000000E-02  1.5564024776363E-02  1.3491370852730E-03
4  3.0000000000000E-02  3.4938540571424E-02  3.0748297408970E-03
5  4.0000000000000E-02  6.1911071488261E-02  5.5627327080331E-03
6  5.0000000000000E-02  9.6326561036861E-02  8.8817391527285E-03
7  6.0000000000000E-02  1.3798123620195E-01  1.3116205770344E-02
8  7.0000000000000E-02  1.8661972248508E-01  1.8362997420521E-02
9  8.0000000000000E-02  2.4193196867077E-01  2.4728098350423E-02
10  9.0000000000000E-02  3.0355022125156E-01  3.2322910737555E-02
11  1.0000000000000E-01  3.7104630591672E-01  4.1260371855171E-02
12  1.1000000000000E-01  4.4392947972235E-01  5.1651026811973E-02
13  1.2000000000000E-01  5.2164511208609E-01  6.3599194332902E-02
14  1.3000000000000E-01  6.0357443561120E-01  7.7199358412592E-02
15  1.4000000000000E-01  6.8903557943078E-01  9.2532909064958E-02
16  1.5000000000000E-01  7.7728605920461E-01  1.0966534117848E-01
17  1.6000000000000E-01  8.6752685044454E-01  1.2864400220801E-01
18  1.7000000000000E-01  9.5890811719929E-01  1.4949645778833E-01
19  1.8000000000000E-01  1.0505366083099E+00  1.7222952016870E-01
20  1.9000000000000E-01  1.1414846706943E+00  1.9682895856786E-01
21  2.0000000000000E-01  1.2308007658218E+00  2.2325988412573E-01
22  2.1000000000000E-01  1.3175213141405E+00  2.5146777609979E-01
23  2.2000000000000E-01  1.4006836351262E+00  2.8138009132715E-01
24  2.3000000000000E-01  1.4793397001194E+00  3.1290837670672E-01
25  2.4000000000000E-01  1.5525703732601E+00  3.4595078541932E-01
26  2.5000000000000E-01  1.6194997843976E+00  3.8039488255170E-01
27  2.6000000000000E-01  1.6793094582366E+00  4.1612061532422E-01
28  2.7000000000000E-01  1.7312518171676E+00  4.5300331767276E-01
29  2.8000000000000E-01  1.7746626817226E+00  4.9091661874180E-01
30  2.9000000000000E-01  1.8089724124254E+00  5.2973512994511E-01
31  3.0000000000000E-01  1.8337153694837E+00  5.6933679547665E-01
32  3.1000000000000E-01  1.8485374113423E+00  6.0960480613774E-01
33  3.2000000000000E-01  1.8532012081556E+00  6.5042899553405E-01
34  3.3000000000000E-01  1.8475892099222E+00  6.9170666036038E-01
35  3.4000000000000E-01  1.8317041791673E+00  7.3334277176610E-01
36  3.5000000000000E-01  1.8056672722327E+00  7.7524957170079E-01
37  3.6000000000000E-01  1.7697137287934E+00  8.1734557562155E-01
38  3.7000000000000E-01  1.7241863034721E+00  8.5955402991381E-01
39  3.8000000000000E-01  1.6695266436540E+00  9.0180089774820E-01
40  3.9000000000000E-01  1.6062648812511E+00  9.4401246983286E-01
41  4.0000000000000E-01  1.5350077608374E+00  9.8611271567113E-01
42  4.1000000000000E-01  1.4564256702349E+00  1.0280205056765E+00
43  4.2000000000000E-01  1.3712389705730E+00  1.0696468441621E+00
44  4.3000000000000E-01  1.2802040398644E+00  1.1108922573334E+00
45  4.4000000000000E-01  1.1840994465016E+00  1.1516444786952E+00
46  4.5000000000000E-01  1.0837126566112E+00  1.1917765666925E+00
47  4.6000000000000E-01  9.7982765226082E-01  1.2311455761088E+00
48  4.7000000000000E-01  8.7321379702294E-01  1.2695918861522E+00
49  4.8000000000000E-01  7.6461623277600E-01  1.3069392648754E+00
50  4.9000000000000E-01  6.5474802877967E-01  1.3429957224140E+00
51  5.0000000000000E-01  5.4428423329037E-01  1.3775551754484E+00
52  5.1000000000000E-01  4.3385790191961E-01  1.4103999134111E+00
53  5.2000000000000E-01  3.2405809843415E-01  1.4413038244583E+00
54  5.3000000000000E-01  2.1542978573235E-01  1.4700363073511E+00
55  5.4000000000000E-01  1.0847545029759E-01  1.4963667653822E+00
56  5.5000000000000E-01  3.6582354174564E-03  1.5200695515513E+00
57  5.6000000000000E-01 -9.8593700453136E-02  1.5409292114232E+00
58  5.7000000000000E-01 -1.9788193125250E-01  1.5587458524925E+00
59  5.8000000000000E-01 -2.9383198189063E-01  1.5733404572015E+00
60  5.9000000000000E-01 -3.8608740208420E-01  1.5845599516250E+00
61  6.0000000000000E-01 -4.7430408303780E-01  1.5922818435856E+00
62  6.1000000000000E-01 -5.5814519180383E-01  1.5964182527137E+00
63  6.2000000000000E-01 -6.3727706959055E-01  1.5969191705550E+00
64  6.3000000000000E-01 -7.1136639683451E-01  1.5937748108393E+00
65  6.4000000000000E-01 -7.8007887101768E-01  1.5870169377988E+00
66  6.5000000000000E-01 -8.4307957503768E-01  1.5767190930653E+00
67  6.6000000000000E-01 -9.0003513695279E-01  1.5629956780906E+00
68  6.7000000000000E-01 -9.5061769902656E-01  1.5459998879710E+00
69  6.8000000000000E-01 -9.9451062837084E-01  1.5259205326366E+00
70  6.9000000000000E-01 -1.0314158164873E+00  1.5029778211503E+00
71  7.0000000000000E-01 -1.0610623340089E+00  1.4774182228799E+00
72  7.1000000000000E-01 -1.0832161332592E+00  1.4495085541388E+00
73  7.2000000000000E-01 -1.0976904279430E+00  1.4195294692015E+00
74  7.3000000000000E-01 -1.1043563291152E+00  1.3877685591813E+00
75  7.4000000000000E-01 -1.1031532818303E+00  1.3545132801182E+00
76  7.5000000000000E-01 -1.0940988293200E+00  1.3200439419650E+00
77  7.6000000000000E-01 -1.0772972323006E+00  1.2846269924726E+00
78  7.7000000000000E-01 -1.0529464905525E+00  1.2485088240141E+00
79  7.8000000000000E-01 -1.0213433519830E+00  1.2119103172190E+00
80  7.9000000000000E-01 -9.8288595004655E-01  1.1750223132663E+00
81  8.0000000000000E-01 -9.3807378200138E-01  1.1380021774707E+00
82  8.1000000000000E-01 -8.8750482576856E-01  1.1009715813015E+00
83  8.2000000000000E-01 -8.3186968928041E-01  1.0640155893760E+00
84  8.3000000000000E-01 -7.7194278986452E-01  1.0271830936358E+00
85  8.4000000000000E-01 -7.0857066873416E-01  9.9048859036828E-01
86  8.5000000000000E-01 -6.4265765316999E-01  9.5391524861511E-01
87  8.6000000000000E-01 -5.7514918250455E-01  9.1741917248481E-01
88  8.7000000000000E-01 -5.0701320965322E-01  8.8093471661731E-01
89  8.8000000000000E-01 -4.3922017396632E-01  8.4438067512398E-01
90  8.9000000000000E-01 -3.7272211025106E-01  8.0766713119002E-01
91  9.0000000000000E-01 -3.0843151004631E-01  7.7070272844183E-01
92  9.1000000000000E-01 -2.4720058233423E-01  7.3340210717053E-01
93  9.2000000000000E-01 -1.8980157023777E-01  6.9569323930992E-01
94  9.3000000000000E-01 -1.3690876702140E-01  6.5752439612956E-01
95  9.4000000000000E-01 -8.9082838833579E-02  6.1887049203204E-01
96  9.5000000000000E-01 -4.6758003858718E-02  5.7973856641192E-01
97  9.6000000000000E-01 -1.0232539429695E-02  5.4017219268970E-01
98  9.7000000000000E-01  2.0337007477389E-02  5.0025463850037E-01
99  9.8000000000000E-01  4.4937642129413E-02  4.6011064244851E-01
100  9.9000000000000E-01  6.3697634721345E-02  4.1990671943614E-01
101  1.0000000000000E+00  7.6880112370231E-02  3.7984995672762E-01
102  1.0100000000000E+00  8.4872652038420E-02  3.4018531487345E-01
103  1.0200000000000E+00  8.8173127754616E-02  3.0119149960967E-01
104  1.0300000000000E+00  8.7372191187745E-02  2.6317552098612E-01
105  1.0400000000000E+00  8.3132879877678E-02  2.2646610247368E-01
106  1.0500000000000E+00  7.6167948308026E-02  1.9140614405177E-01
107  1.0600000000000E+00  6.7215599692615E-02  1.5834447771212E-01
108  1.0700000000000E+00  5.7014357877655E-02  1.2762718019620E-01
109  1.0800000000000E+00  4.6277801021513E-02  9.9588708676835E-02
110  1.0900000000000E+00  3.5670418062167E-02  7.4543283748535E-02
111  1.1000000000000E+00  2.5759913354580E-02  5.2768414373610E-02
112  1.1100000000000E+00  1.6987996611312E-02  3.4491308058507E-02
113  1.1200000000000E+00  9.7998242429304E-03  1.9934187574816E-02
114  1.1300000000000E+00  4.5008088831985E-03  9.2708436580517E-03
115  1.1400000000000E+00  1.2369650328730E-03  2.6080015840489E-03
116  1.1500000000000E+00  3.3394945689184E-05  7.3077871449424E-05
117  1.1600000000000E+00  5.3388118338756E-06  1.1588890053452E-05
118  1.1700000000000E+00 -9.4077930656292E-07 -2.0134303671132E-06
119  1.18  0.  0.
120  1.19  0.  0.
121  1.20  0.  0.
122  1.21  0.  0.
123  1.22  0.  0.
124  1.23  0.  0.
125  1.24  0.  0.
126  1.25  0.  0.
127  1.26  0.  0.
128  1.27  0.  0.
129  1.28  0.  0.
130  1.29  0.  0.
131  1.30  0.  0.
132  1.31  0.  0.
133  1.32  0.  0.
134  1.33  0.  0.
135  1.34  0.  0.
136  1.35  0.  0.
137  1.36  0.  0.
138  1.37  0.  0.
139  1.38  0.  0.
140  1.39  0.  0.
141  1.40  0.  0.
142  1.41  0.  0.
143  1.42  0.  0.
144  1.43  0.  0.
145  1.44  0.  0.
146  1.45  0.  0.
147  1.46  0.  0.
148  1.47  0.  0.
149  1.48  0.  0.
150  1.49  0.  0.
151  1.50  0.  0.
152  1.51  0.  0.
153  1.52  0.  0.
154  1.53  0.  0.
155  1.54  0.  0.
156  1.55  0.  0.
157  1.56  0.  0.
158  1.57  0.  0.
159  1.58  0.  0.
160  1.59  0.  0.
161  1.60  0.  0.
162  1.61  0.  0.
163  1.62  0.  0.
164  1.63  0.  0.
165  1.64  0.  0.