Cf    ONCVPSP-4.0.1  r_core=   1.15394   1.15394   1.35621   1.35621
98.0000     38.0000      230612    zatom,zion,pspd
8      11   3     4   600     0    pspcod,pspxc,lmax,lloc,mmax,r2well
5.99000000  5.00000000  0.00000000    rchrg fchrg qchrg
3     3     3     2    nproj
3     1           extension_switch
4     4     4    nprojso
0                         4.2239350494193E+01  1.7344825953485E+00 -1.0222250652299E+00
1  0.0000000000000E+00 -8.4120856946868E-09  8.9157643490267E-08 -1.5443693560102E-08
2  1.0000000000000E-02  1.6208245481429E-01 -9.3610972110775E-02  1.4638349248717E-02
3  2.0000000000000E-02  3.2317081299325E-01 -1.8578297527991E-01  2.9193221946894E-02
4  3.0000000000000E-02  4.8227872703171E-01 -2.7509994410807E-01  4.3582631305455E-02
5  4.0000000000000E-02  6.3843525997788E-01 -3.6019100273871E-01  5.7727506149217E-02
6  5.0000000000000E-02  7.9069237380700E-01 -4.3975154078338E-01  7.1552993453004E-02
7  6.0000000000000E-02  9.3813216402363E-01 -5.1256253553757E-01  8.4989586892878E-02
8  7.0000000000000E-02  1.0798737664383E+00 -5.7750764745721E-01  9.7974043205040E-02
9  8.0000000000000E-02  1.2150798704764E+00 -6.3358770502376E-01  1.1045006358867E-01
10  9.0000000000000E-02  1.3429627831516E+00 -6.7993229883477E-01  1.2236873488455E-01
11  1.0000000000000E-01  1.4627899985339E+00 -7.1580831838584E-01  1.3368874374340E-01
12  1.1000000000000E-01  1.5738892386780E+00 -7.4062538342965E-01  1.4437639530357E-01
13  1.2000000000000E-01  1.6756529430645E+00 -7.5393823972020E-01  1.5440548485442E-01
14  1.3000000000000E-01  1.7675421941355E+00 -7.5544630099983E-01  1.6375708540662E-01
15  1.4000000000000E-01  1.8490900760476E+00 -7.4499062026279E-01  1.7241932499171E-01
16  1.5000000000000E-01  1.9199044718850E+00 -7.2254865897778E-01  1.8038723395689E-01
17  1.6000000000000E-01  1.9796703109689E+00 -6.8822728921730E-01  1.8766274383227E-01
18  1.7000000000000E-01  2.0281512823181E+00 -6.4225450748350E-01  1.9425491508515E-01
19  1.8000000000000E-01  2.0651910326281E+00 -5.8497035842480E-01  2.0018046108607E-01
20  1.9000000000000E-01  2.0907138673358E+00 -5.1681756073437E-01  2.0546462004810E-01
21  2.0000000000000E-01  2.1047249715081E+00 -4.3833229658244E-01  2.1014240601909E-01
22  2.1000000000000E-01  2.1073101636684E+00 -3.5013557145690E-01  2.1426024497651E-01
23  2.2000000000000E-01  2.0986351905675E+00 -2.5292547584217E-01  2.1787797372249E-01
24  2.3000000000000E-01  2.0789445647331E+00 -1.4747058740864E-01  2.2107114889026E-01
25  2.4000000000000E-01  2.0485599398986E+00 -3.4604646822427E-02  2.2393358241453E-01
26  2.5000000000000E-01  2.0078780126519E+00  8.4777472885802E-02  2.2657998987993E-01
27  2.6000000000000E-01  1.9573679324536E+00  2.0972259853250E-01  2.2914861090321E-01
28  2.7000000000000E-01  1.8975681971096E+00  3.3922109684501E-01  2.3180363774680E-01
29  2.8000000000000E-01  1.8290830074209E+00  4.7220802994119E-01  2.3473727125673E-01
30  2.9000000000000E-01  1.7525780535447E+00  6.0756401975284E-01  2.3817121331599E-01
31  3.0000000000000E-01  1.6687757070150E+00  7.4411628057774E-01  2.4235740342961E-01
32  3.1000000000000E-01  1.5784495966797E+00  8.8064032017937E-01  2.4757781461004E-01
33  3.2000000000000E-01  1.4824185541914E+00  1.0158628235588E+00  2.5414314084984E-01
34  3.3000000000000E-01  1.3815399251705E+00  1.1484662178124E+00  2.6239023518035E-01
35  3.4000000000000E-01  1.2767022556116E+00  1.2770953707969E+00  2.7267819322198E-01
36  3.5000000000000E-01  1.1688173792502E+00  1.4003668014815E+00  2.8538302139078E-01
37  3.6000000000000E-01  1.0588119499949E+00  1.5168806781204E+00  3.0089088027358E-01
38  3.7000000000000E-01  9.4761848359872E-01  1.6252357553042E+00  3.1958995046474E-01
39  3.8000000000000E-01  8.3616599375826E-01  1.7240472573883E+00  3.4186102836125E-01
40  3.9000000000000E-01  7.2537032900598E-01  1.8119675596054E+00  3.6806702077756E-01
41  4.0000000000000E-01  6.1612433719318E-01  1.8877093561351E+00  3.9854156727094E-01
42  4.1000000000000E-01  5.0928800314951E-01  1.9500708437108E+00  4.3357707522913E-01
43  4.2000000000000E-01  4.0567872130808E-01  1.9979622976755E+00  4.7341250245900E-01
44  4.3000000000000E-01  3.0606187783503E-01  2.0304332821444E+00  5.1822126280918E-01
45  4.4000000000000E-01  2.1114192528638E-01  2.0466996242335E+00  5.6809966001119E-01
46  4.5000000000000E-01  1.2155413634556E-01  2.0461692005722E+00  6.2305627152584E-01
47  4.6000000000000E-01  3.7857221235766E-02  2.0284655378450E+00  6.8300270624537E-01
48  4.7000000000000E-01 -3.9473014402049E-02  1.9934482219724E+00  7.4774614644193E-01
49  4.8000000000000E-01 -1.1004880817931E-01  1.9412291453119E+00  8.1698405491930E-01
50  4.9000000000000E-01 -1.7357423291634E-01  1.8721836987008E+00  8.9030138312530E-01
51  5.0000000000000E-01 -2.2984752397657E-01  1.7869561344108E+00  9.6717055578798E-01
52  5.1000000000000E-01 -2.7876185451248E-01  1.6864584843006E+00  1.0469544339027E+00
53  5.2000000000000E-01 -3.2030450594366E-01  1.5718626101394E+00  1.1289123726181E+00
54  5.3000000000000E-01 -3.5455441916855E-01  1.4445851840560E+00  1.2122093963102E+00
55  5.4000000000000E-01 -3.8167815246296E-01  1.3062656386984E+00  1.2959284129048E+00
56  5.5000000000000E-01 -4.0192431348985E-01  1.1587373802223E+00  1.3790852866771E+00
57  5.6000000000000E-01 -4.1561657398402E-01  1.0039928129793E+00  1.4606464869350E+00
58  5.7000000000000E-01 -4.2314541509294E-01  8.4414297266258E-01  1.5395489328990E+00
59  5.8000000000000E-01 -4.2495878766639E-01  6.8137279447660E-01  1.6147215664045E+00
60  5.9000000000000E-01 -4.2155190366698E-01  5.1789324477680E-01  1.6851081072986E+00
61  6.0000000000000E-01 -4.1345640110750E-01  3.5589170944203E-01  1.7496903847701E+00
62  6.1000000000000E-01 -4.0122914445996E-01  1.9748215207334E-01  1.8075115941014E+00
63  6.2000000000000E-01 -3.8544093447023E-01  4.4656623409985E-02  1.8576988046529E+00
64  6.3000000000000E-01 -3.6666540514999E-01 -1.0076028449993E-01  1.8994840428297E+00
65  6.4000000000000E-01 -3.4546838106159E-01 -2.3715249253185E-01  1.9322232941251E+00
66  6.5000000000000E-01 -3.2239795481383E-01 -3.6314755626891E-01  1.9554128111261E+00
67  6.6000000000000E-01 -2.9797552319125E-01 -4.7764457797444E-01  1.9687021788228E+00
68  6.7000000000000E-01 -2.7268799108395E-01 -5.7983384836073E-01  1.9719036731433E+00
69  6.8000000000000E-01 -2.4698131618893E-01 -6.6920742200418E-01  1.9649975510326E+00
70  6.9000000000000E-01 -2.2125552537734E-01 -7.4556013372908E-01  1.9481330276839E+00
71  7.0000000000000E-01 -1.9586128696200E-01 -8.0898089611182E-01  1.9216248251565E+00
72  7.1000000000000E-01 -1.7109807330443E-01 -8.5983446943319E-01  1.8859453126565E+00
73  7.2000000000000E-01 -1.4721389686992E-01 -8.9873425273745E-01  1.8417123978949E+00
74  7.3000000000000E-01 -1.2440655161661E-01 -9.2650699567479E-01  1.7896734667954E+00
75  7.4000000000000E-01 -1.0282624217718E-01 -9.4415066270120E-01  1.7306858009144E+00
76  7.5000000000000E-01 -8.2579437286784E-02 -9.5278698169465E-01  1.6656940239976E+00
77  7.6000000000000E-01 -6.3733742875763E-02 -9.5361046648253E-01  1.5957052371070E+00
78  7.7000000000000E-01 -4.6323555592883E-02 -9.4783590658737E-01  1.5217625920968E+00
79  7.8000000000000E-01 -3.0356230485055E-02 -9.3664645858111E-01  1.4449181228006E+00
80  7.9000000000000E-01 -1.5818478167192E-02 -9.2114454418328E-01  1.3662056995977E+00
81  8.0000000000000E-01 -2.6826978824642E-03 -9.0230775481391E-01  1.2866149941438E+00
82  8.1000000000000E-01  9.0870460353798E-03 -8.8095187658439E-01  1.2070673357194E+00
83  8.2000000000000E-01  1.9529685262162E-02 -8.5770298121639E-01  1.1283943082026E+00
84  8.3000000000000E-01  2.8682705000939E-02 -8.3298027608559E-01  1.0513198769733E+00
85  8.4000000000000E-01  3.6578824073786E-02 -8.0699107068136E-01  9.7644674843803E-01
86  8.5000000000000E-01  4.3243980569653E-02 -7.7973879820123E-01  9.0424755194208E-01
87  8.6000000000000E-01  4.8696752563049E-02 -7.5104453108317E-01  8.3506129542758E-01
88  8.7000000000000E-01  5.2949279845244E-02 -7.2058184915155E-01  7.6909538306459E-01
89  8.8000000000000E-01  5.6009679060415E-02 -6.8792425915955E-01  7.0643329583846E-01
90  8.9000000000000E-01  5.7885861106817E-02 -6.5260362394551E-01  6.4704782489167E-01
91  9.0000000000000E-01  5.8590565941398E-02 -6.1417723542269E-01  5.9081951189404E-01
92  9.1000000000000E-01  5.8147325535275E-02 -5.7230025295695E-01  5.3755968965455E-01
93  9.2000000000000E-01  5.6596949844990E-02 -5.2679921910182E-01  4.8703722741554E-01
94  9.3000000000000E-01  5.4004002072621E-02 -4.7774124645068E-01  4.3900776548203E-01
95  9.4000000000000E-01  5.0462586507640E-02 -4.2549222684907E-01  3.9324386842903E-01
96  9.5000000000000E-01  4.6100612706641E-02 -3.7075602751695E-01  3.4956412911158E-01
97  9.6000000000000E-01  4.1081520986106E-02 -3.1458508348245E-01  3.0785880962545E-01
98  9.7000000000000E-01  3.5602252855427E-02 -2.5835104244982E-01  2.6810910103400E-01
99  9.8000000000000E-01  2.9886022361973E-02 -2.0366213367421E-01  2.3039651067944E-01
100  9.9000000000000E-01  2.4168184469568E-02 -1.5221166171666E-01  1.9489823098864E-01
101  1.0000000000000E+00  1.8673220688333E-02 -1.0553965991841E-01  1.6186360378235E-01
102  1.0100000000000E+00  1.3580582806300E-02 -6.4687426133268E-02  1.3156596750617E-01
103  1.0200000000000E+00  8.9991239644015E-03 -2.9967064272871E-02  1.0423751557777E-01
104  1.0300000000000E+00  5.0019271478721E-03 -1.3949074485173E-03  8.0044199071721E-02
105  1.0400000000000E+00  1.6457118314819E-03  2.1077609404390E-02  5.9088635482321E-02
106  1.0500000000000E+00 -1.0307649257397E-03  3.7574239722310E-02  4.1409746761166E-02
107  1.0600000000000E+00 -3.0088798467109E-03  4.8311173671459E-02  2.6981013175529E-02
108  1.0700000000000E+00 -4.2926053841678E-03  5.3618062534850E-02  1.5707604250037E-02
109  1.0800000000000E+00 -4.9111160342011E-03  5.3961244493583E-02  7.4226874767261E-03
110  1.0900000000000E+00 -4.9214448714869E-03  4.9968156841187E-02  1.8831296906043E-03
111  1.1000000000000E+00 -4.4240262045044E-03  4.2553699057961E-02 -1.2823436276180E-03
112  1.1100000000000E+00 -3.6337737227949E-03  3.3489660173404E-02 -2.8326054200413E-03
113  1.1200000000000E+00 -2.6450933340172E-03  2.3553467672441E-02 -3.0500184596590E-03
114  1.1300000000000E+00 -1.5818101333770E-03  1.3702766162808E-02 -2.2768390263353E-03
115  1.1400000000000E+00 -6.3546131943014E-04  5.3843886992932E-03 -1.0554553792516E-03
116  1.1500000000000E+00 -6.7072382378379E-05  5.5793620633217E-04 -1.2326042750909E-04
117  1.1600000000000E+00  2.5752438212483E-06 -2.1239934454115E-05  4.9629837027538E-06
118  1.1700000000000E+00  4.0170244118780E-07 -3.3605223019336E-06  7.2010167213623E-07
119  1.18  0.  0.  0.
120  1.19  0.  0.  0.
121  1.20  0.  0.  0.
122  1.21  0.  0.  0.
123  1.22  0.  0.  0.
124  1.23  0.  0.  0.
125  1.24  0.  0.  0.
126  1.25  0.  0.  0.
127  1.26  0.  0.  0.
128  1.27  0.  0.  0.
129  1.28  0.  0.  0.
130  1.29  0.  0.  0.
131  1.30  0.  0.  0.
132  1.31  0.  0.  0.
133  1.32  0.  0.  0.
134  1.33  0.  0.  0.
135  1.34  0.  0.  0.
136  1.35  0.  0.  0.
137  1.36  0.  0.  0.
138  1.37  0.  0.  0.
139  1.38  0.  0.  0.
140  1.39  0.  0.  0.
141  1.40  0.  0.  0.
142  1.41  0.  0.  0.
143  1.42  0.  0.  0.
144  1.43  0.  0.  0.
145  1.44  0.  0.  0.
146  1.45  0.  0.  0.
147  1.46  0.  0.  0.
148  1.47  0.  0.  0.
149  1.48  0.  0.  0.
150  1.49  0.  0.  0.
151  1.50  0.  0.  0.
152  1.51  0.  0.  0.
153  1.52  0.  0.  0.
154  1.53  0.  0.  0.
155  1.54  0.  0.  0.
156  1.55  0.  0.  0.
157  1.56  0.  0.  0.
158  1.57  0.  0.  0.
159  1.58  0.  0.  0.
160  1.59  0.  0.  0.
161  1.60  0.  0.  0.
162  1.61  0.  0.  0.
163  1.62  0.  0.  0.
164  1.63  0.  0.  0.
165  1.64  0.  0.  0.
166  1.65  0.  0.  0.
167  1.66  0.  0.  0.
168  1.67  0.  0.  0.
169  1.68  0.  0.  0.
170  1.69  0.  0.  0.
171  1.70  0.  0.  0.
172  1.71  0.  0.  0.
173  1.72  0.  0.  0.
174  1.73  0.  0.  0.
175  1.74  0.  0.  0.
176  1.75  0.  0.  0.
177  1.76  0.  0.  0.
178  1.77  0.  0.  0.
179  1.78  0.  0.  0.
180  1.79  0.  0.  0.
181  1.80  0.  0.  0.
182  1.81  0.  0.  0.
183  1.82  0.  0.  0.
184  1.83  0.  0.  0.
185  1.84  0.  0.  0.
186  1.85  0.  0.  0.
187  1.86  0.  0.  0.
188  1.87  0.  0.  0.
189  1.88  0.  0.  0.
190  1.89  0.  0.  0.
191  1.90  0.  0.  0.
192  1.91  0.  0.  0.
193  1.92  0.  0.  0.
194  1.93  0.  0.  0.
195  1.94  0.  0.  0.
196  1.95  0.  0.  0.
197  1.96  0.  0.  0.
198  1.97  0.  0.  0.
199  1.98  0.  0.  0.
200  1.99  0.  0.  0.
201  2.00  0.  0.  0.
202  2.01  0.  0.  0.
203  2.02  0.  0.  0.
204  2.03  0.  0.  0.
205  2.04  0.  0.  0.
206  2.05  0.  0.  0.
207  2.06  0.  0.  0.
208  2.07  0.  0.  0.
209  2.08  0.  0.  0.
210  2.09  0.  0.  0.
211  2.10  0.  0.  0.
212  2.11  0.  0.  0.
213  2.12  0.  0.  0.
214  2.13  0.  0.  0.
215  2.14  0.  0.  0.
216  2.15  0.  0.  0.
217  2.16  0.  0.  0.
218  2.17  0.  0.  0.
219  2.18  0.  0.  0.
220  2.19  0.  0.  0.
221  2.20  0.  0.  0.
222  2.21  0.  0.  0.
223  2.22  0.  0.  0.
224  2.23  0.  0.  0.
225  2.24  0.  0.  0.
226  2.25  0.  0.  0.
227  2.26  0.  0.  0.
228  2.27  0.  0.  0.
229  2.28  0.  0.  0.
230  2.29  0.  0.  0.
231  2.30  0.  0.  0.
232  2.31  0.  0.  0.
233  2.32  0.  0.  0.
234  2.33  0.  0.  0.
235  2.34  0.  0.  0.
236  2.35  0.  0.  0.
237  2.36  0.  0.  0.
238  2.37  0.  0.  0.
239  2.38  0.  0.  0.
240  2.39  0.  0.  0.
241  2.40  0.  0.  0.
242  2.41  0.  0.  0.
243  2.42  0.  0.  0.
244  2.43  0.  0.  0.
245  2.44  0.  0.  0.
246  2.45  0.  0.  0.
247  2.46  0.  0.  0.
248  2.47  0.  0.  0.
249  2.48  0.  0.  0.
250  2.49  0.  0.  0.
251  2.50  0.  0.  0.
252  2.51  0.  0.  0.
253  2.52  0.  0.  0.
254  2.53  0.  0.  0.
255  2.54  0.  0.  0.
256  2.55  0.  0.  0.
257  2.56  0.  0.  0.
258  2.57  0.  0.  0.
259  2.58  0.  0.  0.
260  2.59  0.  0.  0.
261  2.60  0.  0.  0.
262  2.61  0.  0.  0.
263  2.62  0.  0.  0.
264  2.63  0.  0.  0.
265  2.64  0.  0.  0.
266  2.65  0.  0.  0.
267  2.66  0.  0.  0.
268  2.67  0.  0.  0.
269  2.68  0.  0.  0.
270  2.69  0.  0.  0.
271  2.70  0.  0.  0.
272  2.71  0.  0.  0.
273  2.72  0.  0.  0.
274  2.73  0.  0.  0.
275  2.74  0.  0.  0.
276  2.75  0.  0.  0.
277  2.76  0.  0.  0.
278  2.77  0.  0.  0.
279  2.78  0.  0.  0.
280  2.79  0.  0.  0.
281  2.80  0.  0.  0.
282  2.81  0.  0.  0.
283  2.82  0.  0.  0.
284  2.83  0.  0.  0.
285  2.84  0.  0.  0.
286  2.85  0.  0.  0.
287  2.86  0.  0.  0.
288  2.87  0.  0.  0.
289  2.88  0.  0.  0.
290  2.89  0.  0.  0.
291  2.90  0.  0.  0.
292  2.91  0.  0.  0.
293  2.92  0.  0.  0.
294  2.93  0.  0.  0.
295  2.94  0.  0.  0.
296  2.95  0.  0.  0.
297  2.96  0.  0.  0.
298  2.97  0.  0.  0.
299  2.98  0.  0.  0.
300  2.99  0.  0.  0.
301  3.00  0.  0.  0.
302  3.01  0.  0.  0.
303  3.02  0.  0.  0.
304  3.03  0.  0.  0.
305  3.04  0.  0.  0.
306  3.05  0.  0.  0.
307  3.06  0.  0.  0.
308  3.07  0.  0.  0.
309  3.08  0.  0.  0.
310  3.09  0.  0.  0.
311  3.10  0.  0.  0.
312  3.11  0.  0.  0.
313  3.12  0.  0.  0.
314  3.13  0.  0.  0.
315  3.14  0.  0.  0.
316  3.15  0.  0.  0.
317  3.16  0.  0.  0.
318  3.17  0.  0.  0.
319  3.18  0.  0.  0.
320  3.19  0.  0.  0.
321  3.20  0.  0.  0.
322  3.21  0.  0.  0.
323  3.22  0.  0.  0.
324  3.23  0.  0.  0.
325  3.24  0.  0.  0.
326  3.25  0.  0.  0.
327  3.26  0.  0.  0.
328  3.27  0.  0.  0.
329  3.28  0.  0.  0.
330  3.29  0.  0.  0.
331  3.30  0.  0.  0.
332  3.31  0.  0.  0.
333  3.32  0.  0.  0.
334  3.33  0.  0.  0.
335  3.34  0.  0.  0.
336  3.35  0.  0.  0.
337  3.36  0.  0.  0.
338  3.37  0.  0.  0.
339  3.38  0.  0.  0.
340  3.39  0.  0.  0.
341  3.40  0.  0.  0.
342  3.41  0.  0.  0.
343  3.42  0.  0.  0.
344  3.43  0.  0.  0.
345  3.44  0.  0.  0.
346  3.45  0.  0.  0.
347  3.46  0.  0.  0.
348  3.47  0.  0.  0.
349  3.48  0.  0.  0.
350  3.49  0.  0.  0.
351  3.50  0.  0.  0.
352  3.51  0.  0.  0.
353  3.52  0.  0.  0.
354  3.53  0.  0.  0.
355  3.54  0.  0.  0.
356  3.55  0.  0.  0.
357  3.56  0.  0.  0.
358  3.57  0.  0.  0.
359  3.58  0.  0.  0.
360  3.59  0.  0.  0.
361  3.60  0.  0.  0.
362  3.61  0.  0.  0.
363  3.62  0.  0.  0.
364  3.63  0.  0.  0.
365  3.64  0.  0.  0.
366  3.65  0.  0.  0.
367  3.66  0.  0.  0.
368  3.67  0.  0.  0.
369  3.68  0.  0.  0.
370  3.69  0.  0.  0.
371  3.70  0.  0.  0.
372  3.71  0.  0.  0.
373  3.72  0.  0.  0.
374  3.73  0.  0.  0.
375  3.74  0.  0.  0.
376  3.75  0.  0.  0.
377  3.76  0.  0.  0.
378  3.77  0.  0.  0.
379  3.78  0.  0.  0.
380  3.79  0.  0.  0.
381  3.80  0.  0.  0.
382  3.81  0.  0.  0.
383  3.82  0.  0.  0.
384  3.83  0.  0.  0.
385  3.84  0.  0.  0.
386  3.85  0.  0.  0.
387  3.86  0.  0.  0.
388  3.87  0.  0.  0.
389  3.88  0.  0.  0.
390  3.89  0.  0.  0.
391  3.90  0.  0.  0.
392  3.91  0.  0.  0.
393  3.92  0.  0.  0.
394  3.93  0.  0.  0.
395  3.94  0.  0.  0.
396  3.95  0.  0.  0.
397  3.96  0.  0.  0.
398  3.97  0.  0.  0.
399  3.98  0.  0.  0.
400  3.99  0.  0.  0.
401  4.00  0.  0.  0.
402  4.01  0.  0.  0.
403  4.02  0.  0.  0.
404  4.03  0.  0.  0.
405  4.04  0.  0.  0.
406  4.05  0.  0.  0.
407  4.06  0.  0.  0.
408  4.07  0.  0.  0.
409  4.08  0.  0.  0.
410  4.09  0.  0.  0.
411  4.10  0.  0.  0.
412  4.11  0.  0.  0.
413  4.12  0.  0.  0.
414  4.13  0.  0.  0.
415  4.14  0.  0.  0.
416  4.15  0.  0.  0.
417  4.16  0.  0.  0.
418  4.17  0.  0.  0.
419  4.18  0.  0.  0.
420  4.19  0.  0.  0.
421  4.20  0.  0.  0.
422  4.21  0.  0.  0.
423  4.22  0.  0.  0.
424  4.23  0.  0.  0.
425  4.24  0.  0.  0.
426  4.25  0.  0.  0.
427  4.26  0.  0.  0.
428  4.27  0.  0.  0.
429  4.28  0.  0.  0.
430  4.29  0.  0.  0.
431  4.30  0.  0.  0.
432  4.31  0.  0.  0.
433  4.32  0.  0.  0.
434  4.33  0.  0.  0.
435  4.34  0.  0.  0.
436  4.35  0.  0.  0.
437  4.36  0.  0.  0.
438  4.37  0.  0.  0.
439  4.38  0.  0.  0.
440  4.39  0.  0.  0.
441  4.40  0.  0.  0.
442  4.41  0.  0.  0.
443  4.42  0.  0.  0.
444  4.43  0.  0.  0.
445  4.44  0.  0.  0.
446  4.45  0.  0.  0.
447  4.46  0.  0.  0.
448  4.47  0.  0.  0.
449  4.48  0.  0.  0.
450  4.49  0.  0.  0.
451  4.50  0.  0.  0.
452  4.51  0.  0.  0.
453  4.52  0.  0.  0.
454  4.53  0.  0.  0.
455  4.54  0.  0.  0.
456  4.55  0.  0.  0.
457  4.56  0.  0.  0.
458  4.57  0.  0.  0.
459  4.58  0.  0.  0.
460  4.59  0.  0.  0.
461  4.60  0.  0.  0.
462  4.61  0.  0.  0.
463  4.62  0.  0.  0.
464  4.63  0.  0.  0.
465  4.64  0.  0.  0.
466  4.65  0.  0.  0.
467  4.66  0.  0.  0.
468  4.67  0.  0.  0.
469  4.68  0.  0.  0.
470  4.69  0.  0.  0.
471  4.70  0.  0.  0.
472  4.71  0.  0.  0.
473  4.72  0.  0.  0.
474  4.73  0.  0.  0.
475  4.74  0.  0.  0.
476  4.75  0.  0.  0.
477  4.76  0.  0.  0.
478  4.77  0.  0.  0.
479  4.78  0.  0.  0.
480  4.79  0.  0.  0.
481  4.80  0.  0.  0.
482  4.81  0.  0.  0.
483  4.82  0.  0.  0.
484  4.83  0.  0.  0.
485  4.84  0.  0.  0.
486  4.85  0.  0.  0.
487  4.86  0.  0.  0.
488  4.87  0.  0.  0.
489  4.88  0.  0.  0.
490  4.89  0.  0.  0.
491  4.90  0.  0.  0.
492  4.91  0.  0.  0.
493  4.92  0.  0.  0.
494  4.93  0.  0.  0.
495  4.94  0.  0.  0.
496  4.95  0.  0.  0.
497  4.96  0.  0.  0.
498  4.97  0.  0.  0.
499  4.98  0.  0.  0.
500  4.99  0.  0.  0.
501  5.00  0.  0.  0.
502  5.01  0.  0.  0.
503  5.02  0.  0.  0.
504  5.03  0.  0.  0.
505  5.04  0.  0.  0.
506  5.05  0.  0.  0.
507  5.06  0.  0.  0.
508  5.07  0.  0.  0.
509  5.08  0.  0.  0.
510  5.09  0.  0.  0.
511  5.10  0.  0.  0.
512  5.11  0.  0.  0.
513  5.12  0.  0.  0.
514  5.13  0.  0.  0.
515  5.14  0.  0.  0.
516  5.15  0.  0.  0.
517  5.16  0.  0.  0.
518  5.17  0.  0.  0.
519  5.18  0.  0.  0.
520  5.19  0.  0.  0.
521  5.20  0.  0.  0.
522  5.21  0.  0.  0.
523  5.22  0.  0.  0.
524  5.23  0.  0.  0.
525  5.24  0.  0.  0.
526  5.25  0.  0.  0.
527  5.26  0.  0.  0.
528  5.27  0.  0.  0.
529  5.28  0.  0.  0.
530  5.29  0.  0.  0.
531  5.30  0.  0.  0.
532  5.31  0.  0.  0.
533  5.32  0.  0.  0.
534  5.33  0.  0.  0.
535  5.34  0.  0.  0.
536  5.35  0.  0.  0.
537  5.36  0.  0.  0.
538  5.37  0.  0.  0.
539  5.38  0.  0.  0.
540  5.39  0.  0.  0.
541  5.40  0.  0.  0.
542  5.41  0.  0.  0.
543  5.42  0.  0.  0.
544  5.43  0.  0.  0.
545  5.44  0.  0.  0.
546  5.45  0.  0.  0.
547  5.46  0.  0.  0.
548  5.47  0.  0.  0.
549  5.48  0.  0.  0.
550  5.49  0.  0.  0.
551  5.50  0.  0.  0.
552  5.51  0.  0.  0.
553  5.52  0.  0.  0.
554  5.53  0.  0.  0.
555  5.54  0.  0.  0.
556  5.55  0.  0.  0.
557  5.56  0.  0.  0.
558  5.57  0.  0.  0.
559  5.58  0.  0.  0.
560  5.59  0.  0.  0.
561  5.60  0.  0.  0.
562  5.61  0.  0.  0.
563  5.62  0.  0.  0.
564  5.63  0.  0.  0.
565  5.64  0.  0.  0.
566  5.65  0.  0.  0.
567  5.66  0.  0.  0.
568  5.67  0.  0.  0.
569  5.68  0.  0.  0.
570  5.69  0.  0.  0.
571  5.70  0.  0.  0.
572  5.71  0.  0.  0.
573  5.72  0.  0.  0.
574  5.73  0.  0.  0.
575  5.74  0.  0.  0.
576  5.75  0.  0.  0.
577  5.76  0.  0.  0.
578  5.77  0.  0.  0.
579  5.78  0.  0.  0.
580  5.79  0.  0.  0.
581  5.80  0.  0.  0.
582  5.81  0.  0.  0.
583  5.82  0.  0.  0.
584  5.83  0.  0.  0.
585  5.84  0.  0.  0.
586  5.85  0.  0.  0.
587  5.86  0.  0.  0.
588  5.87  0.  0.  0.
589  5.88  0.  0.  0.
590  5.89  0.  0.  0.
591  5.90  0.  0.  0.
592  5.91  0.  0.  0.
593  5.92  0.  0.  0.
594  5.93  0.  0.  0.
595  5.94  0.  0.  0.
596  5.95  0.  0.  0.
597  5.96  0.  0.  0.
598  5.97  0.  0.  0.
599  5.98  0.  0.  0.
600  5.99  0.  0.  0.
1                         1.1326568890416E+01 -1.3999030857538E+00 -1.4558086705918E-01
1  0.0000000000000E+00  7.4679483152984E-09  2.2476003835870E-09  2.7836353874711E-08
2  1.0000000000000E-02  4.3457281872155E-03 -5.1115766202719E-03  1.8059826105393E-03
3  2.0000000000000E-02  1.7343618770015E-02 -2.0371814147157E-02  7.1851369800241E-03
4  3.0000000000000E-02  3.8876167320068E-02 -4.5557889686591E-02  1.6021905736366E-02
5  4.0000000000000E-02  6.8748787264821E-02 -8.0300617311411E-02  2.8126420158730E-02
6  5.0000000000000E-02  1.0669167639429E-01 -1.2408774408052E-01  4.3238533172923E-02
7  6.0000000000000E-02  1.5236240078305E-01 -1.7626859790439E-01  6.1033352012787E-02
8  7.0000000000000E-02  2.0534916745551E-01 -2.3606011631501E-01  8.1128159738999E-02
9  8.0000000000000E-02  2.6517474965460E-01 -3.0255428744611E-01  1.0309058697031E-01
10  9.0000000000000E-02  3.3130102162819E-01 -3.7472703258076E-01  1.2644787010834E-01
11  1.0000000000000E-01  4.0313405351634E-01 -4.5144855291868E-01  1.5069701051735E-01
12  1.1000000000000E-01  4.8002971128751E-01 -5.3149515139326E-01  1.7531563098372E-01
13  1.2000000000000E-01  5.6129970179756E-01 -6.1356252329093E-01  1.9977331168136E-01
14  1.3000000000000E-01  6.4621799898483E-01 -6.9628048718924E-01  2.2354317807664E-01
15  1.4000000000000E-01  7.3402758400136E-01 -7.7822910066805E-01  2.4611350790595E-01
16  1.5000000000000E-01  8.2394742973378E-01 -8.5795607392696E-01  2.6699912364121E-01
17  1.6000000000000E-01  9.1517965869131E-01 -9.3399535964715E-01  2.8575234072565E-01
18  1.7000000000000E-01  1.0069168026191E+00 -1.0048867601541E+00  3.0197325022277E-01
19  1.8000000000000E-01  1.0983490924072E+00 -1.0691963543238E+00  3.1531912719521E-01
20  1.9000000000000E-01  1.1886717078679E+00 -1.1255375080206E+00  3.2551277285542E-01
21  2.0000000000000E-01  1.2770919186983E+00 -1.1725921945469E+00  3.3234961896124E-01
22  2.1000000000000E-01  1.3628360503649E+00 -1.2091323170582E+00  3.3570344665621E-01
23  2.2000000000000E-01  1.4451562116845E+00 -1.2340406945891E+00  3.3553059850046E-01
24  2.3000000000000E-01  1.5233367244428E+00 -1.2463313486362E+00  3.3187259127821E-01
25  2.4000000000000E-01  1.5967001994319E+00 -1.2451687094406E+00  3.2485706773406E-01
26  2.5000000000000E-01  1.6646132077030E+00 -1.2298853513580E+00  3.1469705709000E-01
27  2.6000000000000E-01  1.7264915005625E+00 -1.1999978659436E+00  3.0168854641520E-01
28  2.7000000000000E-01  1.7818047368094E+00 -1.1552204903481E+00  2.8620639704507E-01
29  2.8000000000000E-01  1.8300806808461E+00 -1.0954761277724E+00  2.6869867167026E-01
30  2.9000000000000E-01  1.8709088405489E+00 -1.0209044262420E+00  2.4967946784976E-01
31  3.0000000000000E-01  1.9039435190891E+00 -9.3186662169801E-01  2.2972038198768E-01
32  3.1000000000000E-01  1.9289062602130E+00 -8.2894690091196E-01  2.0944075373961E-01
33  3.2000000000000E-01  1.9455876717888E+00 -7.1295009825303E-01  1.8949686390650E-01
34  3.3000000000000E-01  1.9538486176664E+00 -5.8489560679806E-01  1.7057027873489E-01
35  3.4000000000000E-01  1.9536207730721E+00 -4.4600745733390E-01  1.5335554981683E-01
36  3.5000000000000E-01  1.9449065438430E+00 -2.9770059685300E-01  1.3854749120744E-01
37  3.6000000000000E-01  1.9277783548000E+00 -1.4156347937885E-01  1.2682826374186E-01
38  3.7000000000000E-01  1.9023773174612E+00  2.0662835601973E-02  1.1885450071893E-01
39  3.8000000000000E-01  1.8689112920951E+00  1.8710880026581E-01  1.1524470907047E-01
40  3.9000000000000E-01  1.8276523638309E+00  3.5580335577054E-01  1.1656717588023E-01
41  4.0000000000000E-01  1.7789337571543E+00  5.2470334103227E-01  1.2332860175349E-01
42  4.1000000000000E-01  1.7231462176434E+00  6.9172483808872E-01  1.3596367023502E-01
43  4.2000000000000E-01  1.6607338942175E+00  8.5477590220562E-01  1.5482574646238E-01
44  4.3000000000000E-01  1.5921897594751E+00  1.0117900788232E+00  1.8017887881647E-01
45  4.4000000000000E-01  1.5180506098737E+00  1.1607600757964E+00  2.1219125484366E-01
46  4.5000000000000E-01  1.4388916915087E+00  1.2997709393567E+00  2.5093023756033E-01
47  4.6000000000000E-01  1.3553210010659E+00  1.4270320766974E+00  2.9635908085648E-01
48  4.7000000000000E-01  1.2679733150949E+00  1.5409074775619E+00  3.4833539355017E-01
49  4.8000000000000E-01  1.1775040040310E+00  1.6399435118128E+00  4.0661139120510E-01
50  4.9000000000000E-01  1.0845826903209E+00  1.7228937194192E+00  4.7083594362170E-01
51  5.0000000000000E-01  9.8988681252486E-01  1.7887400629301E+00  5.4055839446429E-01
52  5.1000000000000E-01  8.9409515929376E-01  1.8367101792680E+00  6.1523409831832E-01
53  5.2000000000000E-01  7.9788143859692E-01  1.8662902461658E+00  6.9423159009834E-01
54  5.3000000000000E-01  7.0190794842926E-01  1.8772331670444E+00  7.7684127265665E-01
55  5.4000000000000E-01  6.0681941539034E-01  1.8695618745953E+00  8.6228548115713E-01
56  5.5000000000000E-01  5.1323706694510E-01  1.8435676555530E+00  9.4972975774548E-01
57  5.6000000000000E-01  4.2175300179717E-01  1.7998035047267E+00  1.0382951476880E+00
58  5.7000000000000E-01  3.3292492059132E-01  1.7390726228271E+00  1.1270713088699E+00
59  5.8000000000000E-01  2.4727127609116E-01  1.6624122774487E+00  1.2151302106769E+00
60  5.9000000000000E-01  1.6526689804322E-01  1.5710733472731E+00  1.3015401861476E+00
61  6.0000000000000E-01  8.7339143153246E-02  1.4664959637843E+00  1.3853800931178E+00
62  6.1000000000000E-01  1.3864614995014E-02  1.3502817503130E+00  1.4657533360814E+00
63  6.2000000000000E-01 -5.4833507700506E-02  1.2241632331046E+00  1.5418015007966E+00
64  6.3000000000000E-01 -1.1848750299597E-01  1.0899710616158E+00  1.6127173583410E+00
65  6.4000000000000E-01 -1.7688647423121E-01  9.4959972403446E-01  1.6777570043694E+00
66  6.5000000000000E-01 -2.2987703950066E-01  8.0497247803552E-01  1.7362509126857E+00
67  6.6000000000000E-01 -2.7736333512577E-01  6.5800623539187E-01  1.7876136997764E+00
68  6.7000000000000E-01 -3.1930633490086E-01  5.1057714194604E-01  1.8313524184567E+00
69  6.8000000000000E-01 -3.5572249575943E-01  3.6448758170634E-01  1.8670732239862E+00
70  6.9000000000000E-01 -3.8668174932110E-01  2.2143530587511E-01  1.8944862845721E+00
71  7.0000000000000E-01 -4.1230486738856E-01  8.2985345197625E-02  1.9134088396957E+00
72  7.1000000000000E-01 -4.3276023772628E-01 -4.9454691854489E-02  1.9237663437027E+00
73  7.2000000000000E-01 -4.4826009423599E-01 -1.7465540061944E-01  1.9255916680727E+00
74  7.3000000000000E-01 -4.5905625283095E-01 -2.9158198592069E-01  1.9190223731671E+00
75  7.4000000000000E-01 -4.6543541080391E-01 -3.9940592442058E-01  1.9042960984210E+00
76  7.5000000000000E-01 -4.6771407320825E-01 -4.9751161201199E-01  1.8817441582815E+00
77  7.6000000000000E-01 -4.6623317468456E-01 -5.8549782659286E-01  1.8517834690149E+00
78  7.7000000000000E-01 -4.6135246924797E-01 -6.6317394326009E-01  1.8149069681546E+00
79  7.8000000000000E-01 -4.5344476382682E-01 -7.3055094907525E-01  1.7716727231531E+00
80  7.9000000000000E-01 -4.4289007386130E-01 -7.8782741702266E-01  1.7226919580867E+00
81  8.0000000000000E-01 -4.3006978112203E-01 -8.3537071277392E-01  1.6686162563821E+00
82  8.1000000000000E-01 -4.1536087521547E-01 -8.7369382290472E-01  1.6101242228907E+00
83  8.2000000000000E-01 -3.9913036116255E-01 -9.0342830910446E-01  1.5479079096553E+00
84  8.3000000000000E-01 -3.8172991615705E-01 -9.2529400989118E-01  1.4826593258710E+00
85  8.4000000000000E-01 -3.6349087934722E-01 -9.4006622996308E-01  1.4150573633706E+00
86  8.5000000000000E-01 -3.4471965947710E-01 -9.4854127854993E-01  1.3457554740626E+00
87  8.6000000000000E-01 -3.2569364673408E-01 -9.5150134329559E-01  1.2753704347651E+00
88  8.7000000000000E-01 -3.0665771745088E-01 -9.4967981698972E-01  1.2044725275385E+00
89  8.8000000000000E-01 -2.8782142368846E-01 -9.4372833287161E-01  1.1335774496985E+00
90  8.9000000000000E-01 -2.6935696447095E-01 -9.3418691254260E-01  1.0631402470326E+00
91  9.0000000000000E-01 -2.5139804184614E-01 -9.2145879128319E-01  9.9355153623678E-01
92  9.1000000000000E-01 -2.3403971328782E-01 -9.0579166150744E-01  9.2513624817553E-01
93  9.2000000000000E-01 -2.1733936251942E-01 -8.8726726909105E-01  8.5815508221624E-01
94  9.3000000000000E-01 -2.0131892388287E-01 -8.6580151235943E-01  7.9280881360075E-01
95  9.4000000000000E-01 -1.8596851115391E-01 -8.4115743265732E-01  7.2924554060385E-01
96  9.5000000000000E-01 -1.7125162044551E-01 -8.1297375166594E-01  6.6757089610960E-01
97  9.6000000000000E-01 -1.5711209875536E-01 -7.8081190693888E-01  6.0786117922121E-01
98  9.7000000000000E-01 -1.4348309500310E-01 -7.4422486648007E-01  5.5017928657832E-01
99  9.8000000000000E-01 -1.3029823923164E-01 -7.0285136819428E-01  4.9459324016973E-01