<UPF version="2.0.1">
  <PP_INFO>
Generated using "atomic" code by A. Dal Corso  v.6.2.2
Author: ADC
Generation date:  4May2018
Pseudopotential type: USPP
Element: At
Functional: PBE
    Suggested minimum cutoff for wavefunctions:  50. Ry
    Suggested minimum cutoff for charge density: 471. Ry
    The Pseudo was generated with a Scalar-Relativistic Calculation
    Local Potential by smoothing AE potential with Bessel fncs, cutoff radius:   1.9000
    Pseudopotential contains additional information for GIPAW reconstruction.
    Valence configuration:
    nl pn  l   occ       Rcut    Rcut US       E pseu
    6S  1  0  2.00      1.600      1.700    -1.423969
    6P  2  1  5.00      1.800      2.000    -0.490008
    5D  3  2 10.00      0.900      1.550    -2.912287
    Generation configuration:
    6S  1  0  2.00      1.600      1.700    -1.423961
    6S  1  0  0.00      1.600      1.700     4.000000
    6P  2  1  5.00      1.800      2.000    -0.490006
    6P  2  1  0.00      1.800      2.000     7.000000
    5D  3  2 10.00      0.900      1.550    -2.912286
    5D  3  2  0.00      0.900      1.550     5.500000
    Pseudization used: troullier-martins

    <PP_INPUTFILE>
 &amp;input
   title='At',
   zed=85.,
   rel=1,
   config='[Xe] 4f14 6s2 6p5 5d10',
   iswitch=3,
   dft='PBE'
 /
 &amp;inputp
   lpaw=.false.,
   use_xsd=.FALSE.,
   pseudotype=3,
   file_pseudopw='At.pbe-dn-rrkjus_psl.1.0.0.UPF',
   author='ADC',
   lloc=-1,
   rcloc=1.9,
   which_augfun='PSQ',
   rmatch_augfun_nc=.true.,
   nlcc=.true.,
   new_core_ps=.true.,
   rcore=1.3,
   tm=.true.
 /
6
6S  1  0  2.00  0.00  1.60  1.70  0.0
6S  1  0  0.00  4.00  1.60  1.70  0.0
6P  2  1  5.00  0.00  1.80  2.00  0.0
6P  2  1  0.00  7.00  1.80  2.00  0.0
5D  3  2 10.00  0.00  0.90  1.55  0.0
5D  3  2  0.00  5.50  0.90  1.55  0.0
</PP_INPUTFILE>
  </PP_INFO>
  <!--
 END OF HUMAN READABLE SECTION 
-->
  <PP_HEADER generated="Generated using &quot;atomic&quot; code by A. Dal Corso  v.6.2.2" author="ADC" date=" 4May2018" comment="" element="At" pseudo_type="USPP" relativistic="scalar" is_ultrasoft="true" is_paw="false" is_coulomb="false" has_so="false" has_wfc="false" has_gipaw="true" paw_as_gipaw="false" core_correction="true" functional="PBE" z_valence="1.700000000000e1" total_psenergy="-2.203512308215e2" wfc_cutoff="5.033384950342e1" rho_cutoff="4.708593709484e2" l_max="2" l_max_rho="4" l_local="-1" mesh_size="1285" number_of_wfc="3" number_of_proj="6"/>
  <PP_MESH dx="1.250000000000e-2" mesh="1285" xmin="-7.000000000000e0" rmax="1.000000000000e2" zmesh="8.500000000000e1">
    <PP_R>
      1.072802312417078e-5 1.086296504316497e-5 1.099960432254803e-5 1.113796231248534e-5
      1.127806063169435e-5 1.141992117082246e-5 1.156356609586751e-5 1.170901785164131e-5
      1.185629916527660e-5 1.200543304977829e-5 1.215644280761926e-5 1.230935203438140e-5
      1.246418462244247e-5 1.262096476470937e-5 1.277971695839833e-5 1.294046600886257e-5
      1.310323703346827e-5 1.326805546551920e-5 1.343494705823067e-5 1.360393788875362e-5
      1.377505436224911e-5 1.394832321601427e-5 1.412377152366001e-5 1.430142669934135e-5
      1.448131650204096e-5 1.466346903990646e-5 1.484791277464252e-5 1.503467652595793e-5
      1.522378947606880e-5 1.541528117425836e-5 1.560918154149402e-5 1.580552087510267e-5
      1.600432985350464e-5 1.620563954100726e-5 1.640948139265881e-5 1.661588725916331e-5
      1.682488939185735e-5 1.703652044774936e-5 1.725081349462240e-5 1.746780201620102e-5
      1.768751991738321e-5 1.791000152953802e-5 1.813528161587000e-5 1.836339537685097e-5
      1.859437845572020e-5 1.882826694405370e-5 1.906509738740361e-5 1.930490679100854e-5
      1.954773262557569e-5 1.979361283313578e-5 2.004258583297146e-5 2.029469052762050e-5
      2.054996630895435e-5 2.080845306433318e-5 2.107019118283846e-5 2.133522156158371e-5
      2.160358561210479e-5 2.187532526683060e-5 2.215048298563503e-5 2.242910176247149e-5
      2.271122513209070e-5 2.299689717684314e-5 2.328616253356702e-5 2.357906640056281e-5
      2.387565454465569e-5 2.417597330834657e-5 2.448006961705329e-5 2.478799098644276e-5
      2.509978552985539e-5 2.541550196582300e-5 2.573518962568100e-5 2.605889846127667e-5
      2.638667905277416e-5 2.671858261655773e-5 2.705466101323454e-5 2.739496675573780e-5
      2.773955301753215e-5 2.808847364092204e-5 2.844178314546475e-5 2.879953673648921e-5
      2.916179031372187e-5 2.952860048002115e-5 2.990002455022186e-5 3.027612056009058e-5
      3.065694727539410e-5 3.104256420108143e-5 3.143303159058177e-5 3.182841045521914e-5
      3.222876257374551e-5 3.263415050199398e-5 3.304463758265309e-5 3.346028795516432e-5
      3.388116656574403e-5 3.430733917753138e-5 3.473887238086408e-5 3.517583360368306e-5
      3.561829112206842e-5 3.606631407090757e-5 3.651997245469776e-5 3.697933715848448e-5
      3.744447995893726e-5 3.791547353556501e-5 3.839239148207233e-5 3.887530831785861e-5
      3.936429949966202e-5 3.985944143334955e-5 4.036081148585570e-5 4.086848799727122e-5
      4.138255029308386e-5 4.190307869657329e-5 4.243015454136154e-5 4.296386018412168e-5
      4.350427901744625e-5 4.405149548287741e-5 4.460559508410126e-5 4.516666440030780e-5
      4.573479109971918e-5 4.631006395328805e-5 4.689257284856812e-5 4.748240880375951e-5
      4.807966398193020e-5 4.868443170541691e-5 4.929680647040683e-5 4.991688396170282e-5
      5.054476106767458e-5 5.118053589539727e-5 5.182430778598124e-5 5.247617733009414e-5
      5.313624638367841e-5 5.380461808386674e-5 5.448139686509701e-5 5.516668847543072e-5
      5.586059999307621e-5 5.656323984311983e-5 5.727471781446781e-5 5.799514507700061e-5
      5.872463419894371e-5 5.946329916445663e-5 6.021125539144295e-5 6.096861974958499e-5
      6.173551057860451e-5 6.251204770675383e-5 6.329835246953906e-5 6.409454772867912e-5
      6.490075789130321e-5 6.571710892938941e-5 6.654372839944834e-5 6.738074546245394e-5
      6.822829090402520e-5 6.908649715486179e-5 6.995549831143641e-5 7.083543015694776e-5
      7.172643018253691e-5 7.262863760877060e-5 7.354219340739483e-5 7.446724032336172e-5
      7.540392289713392e-5 7.635238748726927e-5 7.731278229328955e-5 7.828525737883732e-5
      7.926996469512315e-5 8.026705810466856e-5 8.127669340534743e-5 8.229902835472956e-5
      8.333422269473088e-5 8.438243817657293e-5 8.544383858605753e-5 8.651858976915808e-5
      8.760685965793337e-5 8.870881829676797e-5 8.982463786894074e-5 9.095449272353024e-5
      9.209855940265616e-5 9.325701666906465e-5 9.443004553406070e-5 9.561782928579072e-5
      9.682055351788271e-5 9.803840615844482e-5 9.927157749942976e-5 1.005202602263688e-4
      1.017846494484780e-4 1.030649427291462e-4 1.043613401168030e-4 1.056740441761778e-4
      1.070032600199508e-4 1.083491953408017e-4 1.097120604438627e-4 1.110920682795790e-4
      1.124894344769824e-4 1.139043773773846e-4 1.153371180684921e-4 1.167878804189531e-4
      1.182568911133363e-4 1.197443796875514e-4 1.212505785647147e-4 1.227757230914648e-4
      1.243200515747371e-4 1.258838053189991e-4 1.274672286639547e-4 1.290705690227234e-4
      1.306940769204977e-4 1.323380060336901e-4 1.340026132295691e-4 1.356881586063956e-4
      1.373949055340642e-4 1.391231206952543e-4 1.408730741271014e-4 1.426450392633894e-4
      1.444392929772758e-4 1.462561156245540e-4 1.480957910874588e-4 1.499586068190244e-4
      1.518448538879985e-4 1.537548270243233e-4 1.556888246651875e-4 1.576471490016568e-4
      1.596301060258934e-4 1.616380055789664e-4 1.636711613992661e-4 1.657298911715263e-4
      1.678145165764619e-4 1.699253633410339e-4 1.720627612893438e-4 1.742270443941694e-4
      1.764185508291496e-4 1.786376230216229e-4 1.808846077061345e-4 1.831598559786128e-4
      1.854637233512292e-4 1.877965698079485e-4 1.901587598607750e-4 1.925506626067109e-4
      1.949726517854265e-4 1.974251058376583e-4 1.999084079643422e-4 2.024229461864869e-4
      2.049691134058061e-4 2.075473074661078e-4 2.101579312154592e-4 2.128013925691330e-4
      2.154781045733433e-4 2.181884854697869e-4 2.209329587609931e-4 2.237119532764971e-4
      2.265259032398462e-4 2.293752483364470e-4 2.322604337822680e-4 2.351819103934050e-4
      2.381401346565223e-4 2.411355688001795e-4 2.441686808670558e-4 2.472399447870827e-4
      2.503498404514962e-4 2.534988537878208e-4 2.566874768357973e-4 2.599162078242641e-4
      2.631855512490071e-4 2.664960179515879e-4 2.698481251991639e-4 2.732423967653126e-4
      2.766793630118718e-4 2.801595609718103e-4 2.836835344331396e-4 2.872518340238828e-4
      2.908650172981106e-4 2.945236488230605e-4 2.982283002673523e-4 3.019795504903111e-4
      3.057779856324158e-4 3.096241992068860e-4 3.135187921924174e-4 3.174623731270882e-4
      3.214555582034420e-4 3.254989713647714e-4 3.295932444026096e-4 3.337390170554482e-4
      3.379369371086993e-4 3.421876604959115e-4 3.464918514012622e-4 3.508501823633378e-4
      3.552633343802176e-4 3.597319970158836e-4 3.642568685079635e-4 3.688386558768340e-4
      3.734780750360936e-4 3.781758509044243e-4 3.829327175188639e-4 3.877494181494984e-4
      3.926267054156010e-4 3.975653414032301e-4 4.025660977843064e-4 4.076297559371885e-4
      4.127571070687651e-4 4.179489523380820e-4 4.232061029815254e-4 4.285293804395792e-4
      4.339196164851766e-4 4.393776533536661e-4 4.449043438744128e-4 4.505005516040550e-4
      4.561671509614354e-4 4.619050273642332e-4 4.677150773673096e-4 4.735982088027982e-4
      4.795553409219556e-4 4.855874045387948e-4 4.916953421755285e-4 4.978801082098389e-4
      5.041426690240021e-4 5.104840031558867e-4 5.169051014518519e-4 5.234069672215709e-4
      5.299906163947979e-4 5.366570776801107e-4 5.434073927256486e-4 5.502426162818704e-4
      5.571638163663640e-4 5.641720744307231e-4 5.712684855295290e-4 5.784541584914539e-4
      5.857302160925170e-4 5.930977952315221e-4 6.005580471076990e-4 6.081121374005814e-4
      6.157612464521456e-4 6.235065694512447e-4 6.313493166203545e-4 6.392907134046765e-4
      6.473320006636147e-4 6.554744348646635e-4 6.637192882797336e-4 6.720678491839447e-4
      6.805214220569233e-4 6.890813277866301e-4 6.977489038757499e-4 7.065255046506818e-4
      7.154125014731526e-4 7.244112829544969e-4 7.335232551726289e-4 7.427498418917455e-4
      7.520924847847949e-4 7.615526436587360e-4 7.711317966826393e-4 7.808314406186545e-4
      7.906530910558796e-4 8.005982826471790e-4 8.106685693489714e-4 8.208655246640429e-4
      8.311907418874075e-4 8.416458343552613e-4 8.522324356970758e-4 8.629522000908487e-4
      8.738068025215753e-4 8.847979390429700e-4 8.959273270424744e-4 9.071967055096085e-4
      9.186078353076844e-4 9.301624994489492e-4 9.418625033731834e-4 9.537096752298027e-4
      9.657058661635153e-4 9.778529506035596e-4 9.901528265565926e-4 1.002607415903257e-3
      1.015218664698476e-3 1.027988543475534e-3 1.040919047553969e-3 1.054012197351349e-3
      1.067270038698971e-3 1.080694643161516e-3 1.094288108360747e-3 1.108052558303255e-3
      1.121990143712349e-3 1.136103042364104e-3 1.150393459427647e-3 1.164863627809721e-3
      1.179515808503574e-3 1.194352290942248e-3 1.209375393356311e-3 1.224587463136078e-3
      1.239990877198404e-3 1.255588042358073e-3 1.271381395703874e-3 1.287373404979400e-3
      1.303566568968635e-3 1.319963417886397e-3 1.336566513773691e-3 1.353378450898028e-3
      1.370401856158788e-3 1.387639389497678e-3 1.405093744314349e-3 1.422767647887255e-3
      1.440663861799788e-3 1.458785182371780e-3 1.477134441096439e-3 1.495714505082771e-3
      1.514528277503579e-3 1.533578698049079e-3 1.552868743386239e-3 1.572401427623889e-3
      1.592179802783679e-3 1.612206959276971e-3 1.632486026387709e-3 1.653020172761391e-3
      1.673812606900161e-3 1.694866577664156e-3 1.716185374779146e-3 1.737772329350551e-3
      1.759630814383942e-3 1.781764245312079e-3 1.804176080528570e-3 1.826869821928271e-3
      1.849849015454443e-3 1.873117251652827e-3 1.896678166232669e-3 1.920535440634804e-3
      1.944692802606901e-3 1.969154026785913e-3 1.993922935287884e-3 2.019003398305163e-3
      2.044399334711119e-3 2.070114712672489e-3 2.096153550269394e-3 2.122519916123187e-3
      2.149217930032174e-3 2.176251763615344e-3 2.203625640964201e-3 2.231343839302769e-3
      2.259410689655932e-3 2.287830577526161e-3 2.316607943578754e-3 2.345747284335708e-3
      2.375253152878300e-3 2.405130159558519e-3 2.435382972719444e-3 2.466016319424680e-3
      2.497034986196978e-3 2.528443819766125e-3 2.560247727826270e-3 2.592451679802753e-3
      2.625060707628586e-3 2.658079906530716e-3 2.691514435826147e-3 2.725369519728105e-3
      2.759650448162327e-3 2.794362577593625e-3 2.829511331862849e-3 2.865102203034362e-3
      2.901140752254195e-3 2.937632610618985e-3 2.974583480055841e-3 3.011999134213295e-3
      3.049885419363430e-3 3.088248255315381e-3 3.127093636340316e-3 3.166427632108046e-3
      3.206256388635443e-3 3.246586129246744e-3 3.287423155545970e-3 3.328773848401565e-3
      3.370644668943413e-3 3.413042159572415e-3 3.455972944982740e-3 3.499443733196950e-3
      3.543461316614144e-3 3.588032573071287e-3 3.633164466917882e-3 3.678864050104163e-3
      3.725138463282981e-3 3.771994936925540e-3 3.819440792451174e-3 3.867483443371343e-3
      3.916130396447997e-3 3.965389252866522e-3 4.015267709423458e-3 4.065773559729112e-3
      4.116914695425359e-3 4.168699107418693e-3 4.221134887128844e-3 4.274230227753078e-3
      4.327993425546381e-3 4.382432881117801e-3 4.437557100743024e-3 4.493374697693519e-3
      4.549894393582370e-3 4.607125019727047e-3 4.665075518529330e-3 4.723754944872550e-3
      4.783172467536463e-3 4.843337370629868e-3 4.904259055041276e-3 4.965947039907830e-3
      5.028410964102669e-3 5.091660587741030e-3 5.155705793705288e-3 5.220556589189175e-3
      5.286223107261431e-3 5.352715608449101e-3 5.420044482340777e-3 5.488220249209984e-3
      5.557253561658997e-3 5.627155206283343e-3 5.697936105357206e-3 5.769607318540075e-3
      5.842180044604822e-3 5.915665623187540e-3 5.990075536559401e-3 6.065421411420756e-3
      6.141715020717839e-3 6.218968285482327e-3 6.297193276694003e-3 6.376402217166909e-3
      6.456607483459137e-3 6.537821607806727e-3 6.620057280081836e-3 6.703327349775565e-3
      6.787644828005726e-3 6.873022889549835e-3 6.959474874903710e-3 7.047014292365949e-3
      7.135654820148629e-3 7.225410308514563e-3 7.316294781941414e-3 7.408322441313063e-3
      7.501507666138516e-3 7.595865016798731e-3 7.691409236821734e-3 7.788155255186285e-3
      7.886118188654584e-3 7.985313344134291e-3 8.085756221070262e-3 8.187462513866379e-3
      8.290448114337810e-3 8.394729114194153e-3 8.500321807553799e-3 8.607242693489903e-3
      8.715508478608447e-3 8.825136079658613e-3 8.936142626176105e-3 9.048545463159657e-3
      9.162362153781235e-3 9.277610482130315e-3 9.394308455992675e-3 9.512474309664151e-3
      9.632126506799795e-3 9.753283743298828e-3 9.875964950225969e-3 1.000018929676939e-2
      1.012597619323598e-2 1.025334529408422e-2 1.038231650099524e-2 1.051290996598254e-2
      1.064514609454071e-2 1.077904554883386e-2 1.091462925092416e-2 1.105191838604089e-2
      1.119093440589076e-2 1.133169903200967e-2 1.147423425915686e-2 1.161856235875155e-2
      1.176470588235294e-2 1.191268766518393e-2 1.206253082969917e-2 1.221425878919795e-2
      1.236789525148264e-2 1.252346422256305e-2 1.268099001040743e-2 1.284049722874061e-2
      1.300201080088998e-2 1.316555596367978e-2 1.333115827137443e-2 1.349884359967144e-2
      1.366863814974451e-2 1.384056845233754e-2 1.401466137191011e-2 1.419094411083507e-2
      1.436944421364906e-2 1.455018957135629e-2 1.473320842578665e-2 1.491852937400847e-2
      1.510618137279696e-2 1.529619374315872e-2 1.548859617491320e-2 1.568341873133181e-2
      1.588069185383534e-2 1.608044636675054e-2 1.628271348212649e-2 1.648752480461146e-2
      1.669491233639127e-2 1.690490848218971e-2 1.711754605433178e-2 1.733285827787078e-2
      1.755087879577966e-2 1.777164167420792e-2 1.799518140780447e-2 1.822153292510745e-2
      1.845073159400199e-2 1.868281322724640e-2 1.891781408806804e-2 1.915577089582954e-2
      1.939672083176621e-2 1.964070154479580e-2 1.988775115740108e-2 2.013790827158665e-2
      2.039121197491054e-2 2.064770184659174e-2 2.090741796369457e-2 2.117040090739070e-2
      2.143669176930012e-2 2.170633215791177e-2 2.197936420508497e-2 2.225583057263259e-2
      2.253577445898702e-2 2.281923960595006e-2 2.310627030552763e-2 2.339691140685049e-2
      2.369120832318208e-2 2.398920703901430e-2 2.429095411725279e-2 2.459649670649244e-2
      2.490588254838441e-2 2.521915998509600e-2 2.553637796686404e-2 2.585758605964357e-2
      2.618283445285257e-2 2.651217396721422e-2 2.684565606269769e-2 2.718333284655888e-2
      2.752525708148226e-2 2.787148219382519e-2 2.822206228196586e-2 2.857705212475634e-2
      2.893650719008177e-2 2.930048364352744e-2 2.966903835715470e-2 3.004222891838737e-2
      3.042011363900996e-2 3.080275156427885e-2 3.119020248214833e-2 3.158252693261261e-2
      3.197978621716524e-2 3.238204240837773e-2 3.278935835959826e-2 3.320179771477294e-2
      3.361942491839019e-2 3.404230522555013e-2 3.447050471216123e-2 3.490409028526434e-2
      3.534312969348743e-2 3.578769153763137e-2 3.623784528138860e-2 3.669366126219759e-2
      3.715521070223258e-2 3.762256571953264e-2 3.809579933927015e-2 3.857498550516087e-2
      3.906019909101826e-2 3.955151591245212e-2 4.004901273871550e-2 4.055276730469974e-2
      4.106285832308049e-2 4.157936549661733e-2 4.210236953060683e-2 4.263195214549342e-2
      4.316819608963820e-2 4.371118515224829e-2 4.426100417646958e-2 4.481773907264309e-2
      4.538147683172910e-2 4.595230553889946e-2 4.653031438730090e-2 4.711559369199211e-2
      4.770823490405501e-2 4.830833062488483e-2 4.891597462065894e-2 4.953126183698776e-2
      5.015428841375085e-2 5.078515170011818e-2 5.142395026976184e-2 5.207078393625808e-2
      5.272575376868311e-2 5.338896210740597e-2 5.406051258007870e-2 5.474051011782905e-2
      5.542906097165582e-2 5.612627272903062e-2 5.683225433070923e-2 5.754711608775302e-2
      5.827096969876604e-2 5.900392826734779e-2 5.974610631976567e-2 6.049761982285049e-2
      6.125858620211590e-2 6.202912436010694e-2 6.280935469497859e-2 6.359939911930784e-2
      6.439938107914358e-2 6.520942557329441e-2 6.602965917286064e-2 6.686021004101116e-2
      6.770120795300860e-2 6.855278431648799e-2 6.941507219198845e-2 7.028820631374497e-2
      7.117232311074060e-2 7.206756072802335e-2 7.297405904829260e-2 7.389195971375489e-2
      7.482140614825682e-2 7.576254357969487e-2 7.671551906270722e-2 7.768048150165217e-2
      7.865758167387378e-2 7.964697225326203e-2 8.064880783410803e-2 8.166324495525924e-2
      8.269044212458001e-2 8.373055984371760e-2 8.478376063318194e-2 8.585020905773925e-2
      8.693007175212530e-2 8.802351744708337e-2 8.913071699572763e-2 9.025184340024033e-2
      9.138707183890325e-2 9.253657969346932e-2 9.370054657687977e-2 9.487915436132795e-2
      9.607258720667819e-2 9.728103158924085e-2 9.850467633090899e-2 9.974371262866331e-2
      1.009983340844459e-1 1.022687367354118e-1 1.035551190845602e-1 1.048576821317498e-1
      1.061766294051074e-1 1.075121669928274e-1 1.088645035753752e-1 1.102338504580934e-1
      1.116204216042179e-1 1.130244336683119e-1 1.144461060301163e-1 1.158856608288304e-1
      1.173433229978203e-1 1.188193202997653e-1 1.203138833622472e-1 1.218272457137846e-1
      1.233596438203244e-1 1.249113171221884e-1 1.264825080714865e-1 1.280734621700017e-1
      1.296844280075483e-1 1.313156573008160e-1 1.329674049327010e-1 1.346399289921308e-1
      1.363334908143930e-1 1.380483550219672e-1 1.397847895658752e-1 1.415430657675475e-1
      1.433234583612173e-1 1.451262455368502e-1 1.469517089836096e-1 1.488001339338732e-1
      1.506718092078005e-1 1.525670272584604e-1 1.544860842175298e-1 1.564292799415622e-1
      1.583969180588436e-1 1.603893060168325e-1 1.624067551302011e-1 1.644495806294782e-1
      1.665181017103036e-1 1.686126415833053e-1 1.707335275245991e-1 1.728810909269287e-1
      1.750556673514453e-1 1.772575965801387e-1 1.794872226689315e-1 1.817448940014356e-1
      1.840309633433903e-1 1.863457878977816e-1 1.886897293606550e-1 1.910631539776336e-1
      1.934664326011419e-1 1.958999407483546e-1 1.983640586598712e-1 2.008591713591278e-1
      2.033856687125608e-1 2.059439454905211e-1 2.085344014289605e-1 2.111574412918901e-1
      2.138134749346243e-1 2.165029173678243e-1 2.192261888223414e-1 2.219837148148810e-1
      2.247759262144902e-1 2.276032593098802e-1 2.304661558776002e-1 2.333650632510627e-1
      2.363004343904432e-1 2.392727279534545e-1 2.422824083670122e-1 2.453299458998051e-1
      2.484158167357721e-1 2.515405030485099e-1 2.547044930766126e-1 2.579082811999585e-1
      2.611523680169607e-1 2.644372604227839e-1 2.677634716885497e-1 2.711315215415365e-1
      2.745419362463850e-1 2.779952486873323e-1 2.814919984514724e-1 2.850327319130703e-1
      2.886180023189338e-1 2.922483698748570e-1 2.959244018331576e-1 2.996466725813070e-1
      3.034157637316831e-1 3.072322642124470e-1 3.110967703595624e-1 3.150098860099783e-1
      3.189722225959754e-1 3.229843992407071e-1 3.270470428549375e-1 3.311607882349959e-1
      3.353262781619684e-1 3.395441635021299e-1 3.438151033086463e-1 3.481397649245527e-1
      3.525188240870238e-1 3.569529650329643e-1 3.614428806059169e-1 3.659892723643254e-1
      3.705928506911525e-1 3.752543349048765e-1 3.799744533718909e-1 3.847539436203079e-1
      3.895935524552037e-1 3.944940360753055e-1 3.994561601911478e-1 4.044807001447205e-1
      4.095684410306124e-1 4.147201778186888e-1 4.199367154783048e-1 4.252188691040815e-1
      4.305674640432710e-1 4.359833360247129e-1 4.414673312894235e-1 4.470203067228212e-1
      4.526431299886134e-1 4.583366796643767e-1 4.641018453788300e-1 4.699395279508463e-1
      4.758506395302051e-1 4.818361037401154e-1 4.878968558215389e-1 4.940338427793177e-1
      5.002480235301504e-1 5.065403690524230e-1 5.129118625379236e-1 5.193634995454740e-1
      5.258962881564807e-1 5.325112491324562e-1 5.392094160745119e-1 5.459918355848585e-1
      5.528595674303452e-1 5.598136847080436e-1 5.668552740129273e-1 5.739854356076526e-1
      5.812052835944728e-1 5.885159460893272e-1 5.959185653981019e-1 6.034142981951259e-1
      6.110043157038999e-1 6.186898038800994e-1 6.264719635968904e-1 6.343520108325595e-1
      6.423311768605204e-1 6.504107084416998e-1 6.585918680193430e-1 6.668759339162809e-1
      6.752642005346616e-1 6.837579785582117e-1 6.923585951570289e-1 7.010673941949528e-1
      7.098857364395537e-1 7.188149997747456e-1 7.278565794160929e-1 7.370118881288108e-1
      7.462823564485099e-1 7.556694329047289e-1 7.651745842472589e-1 7.747992956753377e-1
      7.845450710697084e-1 7.944134332276017e-1 8.044059241006851e-1 8.145241050359841e-1
      8.247695570198571e-1 8.351438809250228e-1 8.456486977606948e-1 8.562856489258792e-1
      8.670563964658335e-1 8.779626233317755e-1 8.890060336438433e-1 9.001883529573634e-1
      9.115113285324819e-1 9.229767296071664e-1 9.345863476736628e-1 9.463419967584155e-1
      9.582455137055076e-1 9.702987584636835e-1 9.825036143769561e-1 9.948619884788942e-1
      1.007375811790596e0 1.020047039622410e0 1.032877651879470e0 1.045869653371039e0
      1.059025074123786e0 1.072345969698970e0 1.085834421513622e0 1.099492537165785e0
      1.113322450763814e0 1.127326323259846e0 1.141506342787453e0 1.155864725003530e0
      1.170403713434517e0 1.185125579826931e0 1.200032624502349e0 1.215127176716833e0
      1.230411595024873e0 1.245888267647930e0 1.261559612847583e0 1.277428079303407e0
      1.293496146495572e0 1.309766325092263e0 1.326241157341992e0 1.342923217470812e0
      1.359815112084561e0 1.376919480576140e0 1.394238995537922e0 1.411776363179360e0
      1.429534323749823e0 1.447515651966783e0 1.465723157449358e0 1.484159685157320e0
      1.502828115835636e0 1.521731366464576e0 1.540872390715513e0 1.560254179412431e0
      1.579879760999241e0 1.599752202013001e0 1.619874607563044e0 1.640250121816178e0
      1.660881928487964e0 1.681773251340165e0 1.702927354684484e0 1.724347543892602e0
      1.746037165912666e0 1.767999609792247e0 1.790238307207878e0 1.812756733001282e0
      1.835558405722295e0 1.858646888178676e0 1.882025787992784e0 1.905698758165275e0
      1.929669497645906e0 1.953941751911483e0 1.978519313551123e0 2.003406022858837e0
      2.028605768433581e0 2.054122487786876e0 2.079960167958029e0 2.106122846137137e0
      2.132614610295899e0 2.159439599826353e0 2.186602006187698e0 2.214106073561182e0
      2.241956099513294e0 2.270156435667254e0 2.298711488382952e0 2.327625719445479e0
      2.356903646762257e0 2.386549845068999e0 2.416568946644510e0 2.446965642034478e0
      2.477744680784409e0 2.508910872181718e0 2.540469086007225e0 2.572424253296049e0
      2.604781367108084e0 2.637545483308203e0 2.670721721356213e0 2.704315265106810e0
      2.738331363619556e0 2.772775331979042e0 2.807652552125410e0 2.842968473695256e0
      2.878728614873181e0 2.914938563254004e0 2.951603976715819e0 2.988730584304085e0
      3.026324187126765e0 3.064390659260786e0 3.102935948669873e0 3.141966078133907e0
      3.181487146190036e0 3.221505328085536e0 3.262026876742753e0 3.303058123736112e0
      3.344605480281423e0 3.386675438237686e0 3.429274571121413e0 3.472409535133791e0
      3.516087070200712e0 3.560314001025881e0 3.605097238157231e0 3.650443779066664e0
      3.696360709243461e0 3.742855203301389e0 3.789934526099724e0 3.837606033878451e0
      3.885877175407634e0 3.934755493151354e0 3.984248624446207e0 4.034364302694640e0
      4.085110358573353e0 4.136494721256810e0 4.188525419656226e0 4.241210583674091e0
      4.294558445474459e0 4.348577340769285e0 4.403275710120849e0 4.458662100260653e0
      4.514745165424850e0 4.571533668706456e0 4.629036483424663e0 4.687262594511246e0
      4.746221099914531e0 4.805921212020947e0 4.866372259094456e0 4.927583686734168e0
      4.989565059350172e0 5.052326061658046e0 5.115876500192101e0 5.180226304837634e0
      5.245385530382560e0 5.311364358088417e0 5.378173097281281e0 5.445822186962583e0
      5.514322197440200e0 5.583683831980152e0 5.653917928478934e0 5.725035461157026e0
      5.797047542273609e0 5.869965423862847e0 5.943800499492111e0 6.018564306042167e0
      6.094268525509905e0 6.170924986833652e0 6.248545667741425e0 6.327142696622557e0
      6.406728354422699e0 6.487315076562809e0 6.568915454882188e0 6.651542239605942e0
      6.735208341337316e0 6.819926833074899e0 6.905710952255398e0 6.992574102821979e0
      7.080529857318615e0 7.169591959010919e0 7.259774324033456e0 7.351091043564248e0
      7.443556386026518e0 7.537184799318128e0 7.631990913069164e0 7.727989540927761e0
      7.825195682874845e0 7.923624527567876e0 8.023291454714064e0 8.124212037473580e0
      8.226402044892774e0 8.329877444368227e0 8.434654404141646e0 8.540749295826135e0
      8.648178696964399e0 8.756959393618907e0 8.867108382994839e0 8.978642876095902e0
      9.091580300413531e0 9.205938302650075e0 9.321734751476024e0 9.438987740322105e0
      9.557715590206399e0 9.677936852596970e0 9.799670312310690e0 9.922934990448278e0
      1.004775014736649e1 1.017413528568755e1 1.030211015334642e1 1.043169474667658e1
      1.056290931353433e1 1.069577435646273e1 1.083031063589507e1 1.096653917339869e1
      1.110448125495976e1 1.124415843430915e1 1.138559253629031e1 1.152880566026946e1
      1.167382018358854e1 1.182065876506190e1 1.196934434851660e1 1.211990016637758e1
      1.227234974329769e1 1.242671689983347e1 1.258302575616722e1 1.274130073587572e1
      1.290156656974657e1 1.306384829964241e1 1.322817128241365e1 1.339456119386072e1
      1.356304403274575e1 1.373364612485512e1 1.390639412711285e1 1.408131503174569e1
      1.425843617050092e1 1.443778521891679e1 1.461939020064701e1 1.480327949183949e1
      1.498948182557005e1 1.517802629633222e1 1.536894236458309e1 1.556225986134679e1
      1.575800899287552e1 1.595622034536928e1 1.615692488975520e1 1.636015398652665e1
      1.656593939064348e1 1.677431325649379e1 1.698530814291801e1 1.719895701829646e1
      1.741529326570054e1 1.763435068810908e1 1.785616351369003e1 1.808076640114862e1
      1.830819444514301e1 1.853848318176774e1 1.877166859410646e1 1.900778711785430e1
      1.924687564701091e1 1.948897153964547e1 1.973411262373369e1 1.998233720306873e1
      2.023368406324617e1 2.048819247772420e1 2.074590221396047e1 2.100685353962549e1
      2.127108722889486e1 2.153864456882014e1 2.180956736577998e1 2.208389795201267e1
      2.236167919223036e1 2.264295449031703e1 2.292776779611029e1 2.321616361226857e1
      2.350818700122495e1 2.380388359222801e1 2.410329958847174e1 2.440648177431475e1
      2.471347752259033e1 2.502433480200881e1 2.533910218465247e1 2.565782885356529e1
      2.598056461043778e1 2.630735988338847e1 2.663826573484373e1 2.697333386951598e1
      2.731261664248302e1 2.765616706736845e1 2.800403882462501e1 2.835628626992263e1
      2.871296444264118e1 2.907412907447089e1 2.943983659812030e1 2.981014415613393e1
      3.018510960982122e1 3.056479154829707e1 3.094924929763689e1 3.133854293014626e1
      3.173273327374718e1 3.213188192148292e1 3.253605124114165e1 3.294530438500192e1
      3.335970529970016e1 3.377931873622225e1 3.420421026002151e1 3.463444626126282e1
      3.507009396519681e1 3.551122144266357e1 3.595789762072882e1 3.641019229345429e1
      3.686817613280265e1 3.733192069968066e1 3.780149845512044e1 3.827698277160151e1
      3.875844794451583e1 3.924596920377611e1 3.973962272557101e1 4.023948564426774e1
      4.074563606446417e1 4.125815307319341e1 4.177711675228062e1 4.230260819085657e1
      4.283470949802775e1 4.337350381570581e1 4.391907533159923e1 4.447150929236719e1
      4.503089201694007e1 4.559731091000674e1 4.617085447567147e1 4.675161233128343e1
      4.733967522143898e1 4.793513503216118e1 4.853808480525704e1 4.914861875285513e1
      4.976683227212708e1 5.039282196019287e1 5.102668562921495e1 5.166852232168128e1