<UPF version="2.0.1">
  <PP_INFO>
Generated using "atomic" code by A. Dal Corso  v.6.3MaX
Author: ADC
Generation date:  4Sep2018
Pseudopotential type: USPP
Element: Be
Functional: PBE
    Suggested minimum cutoff for wavefunctions:  70. Ry
    Suggested minimum cutoff for charge density: 710. Ry
    The Pseudo was generated with a Fully-Relativistic Calculation
    Local Potential by smoothing AE potential with Bessel fncs, cutoff radius:   0.8000
    Pseudopotential contains additional information for spin-orbit calculations.
    Valence configuration:
    nl pn  l   occ       Rcut    Rcut US       E pseu
    1S  1  0  2.00      0.500      1.300    -7.806459
    2S  2  0  2.00      0.500      1.300    -0.412306
    2P  2  1  0.00      0.900      1.700    -0.148392
    2P  2  1  0.00      0.900      1.700    -0.148335
    Generation configuration:
    1S  1  0  2.00      0.500      1.300    -7.806456
    2S  2  0  2.00      0.500      1.300    -0.412306
    2P  2  1  0.00      0.900      1.700    -0.148395
    2P  2  1  0.00      0.900      1.700    -0.148334
    2P  2  1  0.00      0.900      1.700     1.500000
    2P  2  1  0.00      0.900      1.700     1.500000
    Pseudization used: troullier-martins

    <PP_INPUTFILE>
 &amp;input
   title='Be',
   zed=4.,
   rel=2,
   config='[He] 2s2 2p0',
   iswitch=3,
   dft='PBE'
 /
 &amp;inputp
   lpaw=.false.,
   use_xsd=.FALSE.,
   pseudotype=3,
   file_pseudopw='Be.rel-pbe-sl-rrkjus_psl.1.0.0.UPF',
   author='ADC',
   lloc=-1,
   rcloc=0.8,
   which_augfun='PSQ',
   rmatch_augfun_nc=.true.,
   tm=.true.
 /
4
1S  1  0  2.00  0.00  0.50  1.30  0.0
2S  2  0  2.00  0.00  0.50  1.30  0.0
2P  2  1  0.00  0.00  0.90  1.70  0.0
2P  2  1  0.00  1.50  0.90  1.70  0.0
</PP_INPUTFILE>
  </PP_INFO>
  <!--
 END OF HUMAN READABLE SECTION 
-->
  <PP_HEADER generated="Generated using &quot;atomic&quot; code by A. Dal Corso  v.6.3MaX" author="ADC" date=" 4Sep2018" comment="" element="Be" pseudo_type="USPP" relativistic="full" is_ultrasoft="true" is_paw="false" is_coulomb="false" has_so="true" has_wfc="false" has_gipaw="false" paw_as_gipaw="false" core_correction="false" functional="PBE" z_valence="4.000000000000e0" total_psenergy="-2.912668972735e1" wfc_cutoff="7.012981468431e1" rho_cutoff="7.100779378795e2" l_max="1" l_max_rho="2" l_local="-1" mesh_size="1041" number_of_wfc="4" number_of_proj="6"/>
  <PP_MESH dx="1.250000000000e-2" mesh="1041" xmin="-7.000000000000e0" rmax="1.000000000000e2" zmesh="4.000000000000e0">
    <PP_R>
      2.279704913886290e-4 2.308380071672556e-4 2.337415918541455e-4 2.366816991403135e-4
      2.396587884235050e-4 2.426733248799772e-4 2.457257795371846e-4 2.488166293473778e-4
      2.519463572621276e-4 2.551154523077886e-4 2.583244096619093e-4 2.615737307306047e-4
      2.648639232269026e-4 2.681955012500742e-4 2.715689853659645e-4 2.749849026883296e-4
      2.784437869612008e-4 2.819461786422831e-4 2.854926249874019e-4 2.890836801360144e-4
      2.927199051977936e-4 2.964018683403032e-4 3.001301448777752e-4 3.039053173610037e-4
      3.077279756683702e-4 3.115987170980124e-4 3.155181464611536e-4 3.194868761766060e-4
      3.235055263664620e-4 3.275747249529900e-4 3.316951077567479e-4 3.358673185959317e-4
      3.400920093869734e-4 3.443698402464042e-4 3.487014795939997e-4 3.530876042572204e-4
      3.575288995769686e-4 3.620260595146739e-4 3.665797867607258e-4 3.711907928442717e-4
      3.758597982443931e-4 3.805875325026829e-4 3.853747343372376e-4 3.902221517580831e-4
      3.951305421840543e-4 4.001006725611411e-4 4.051333194823266e-4 4.102292693089316e-4
      4.153893182934834e-4 4.206142727041353e-4 4.259049489506435e-4 4.312621737119356e-4
      4.366867840652800e-4 4.421796276170801e-4 4.477415626353174e-4 4.533734581836538e-4
      4.590761942572268e-4 4.648506619201503e-4 4.706977634447443e-4 4.766184124525191e-4
      4.826135340569273e-4 4.886840650079168e-4 4.948309538382992e-4 5.010551610119597e-4
      5.073576590739335e-4 5.137394328023647e-4 5.202014793623824e-4 5.267448084619085e-4
      5.333704425094270e-4 5.400794167737386e-4 5.468727795457213e-4 5.537515923021292e-4
      5.607169298714508e-4 5.677698806018518e-4 5.749115465312340e-4 5.821430435594285e-4
      5.894655016225582e-4 5.968800648695933e-4 6.043878918411258e-4 6.119901556503958e-4
      6.196880441665897e-4 6.274827602004497e-4 6.353755216922147e-4 6.433675619019249e-4
      6.514601296021246e-4 6.596544892729804e-4 6.679519212998626e-4 6.763537221734067e-4
      6.848612046920922e-4 6.934756981673722e-4 7.021985486313782e-4 7.110311190472418e-4
      7.199747895220606e-4 7.290309575225419e-4 7.382010380933616e-4 7.474864640782649e-4
      7.568886863439538e-4 7.664091740067858e-4 7.760494146623271e-4 7.858109146177950e-4
      7.956951991274167e-4 8.057038126307566e-4 8.158383189940372e-4 8.261003017544954e-4
      8.364913643678181e-4 8.470131304586777e-4 8.576672440744336e-4 8.684553699420134e-4
      8.793791937280321e-4 8.904404223021825e-4 9.016407840039326e-4 9.129820289125860e-4
      9.244659291207331e-4 9.360942790111451e-4 9.478688955371521e-4 9.597916185065408e-4
      9.718643108690326e-4 9.840888590073707e-4 9.964671730320726e-4 1.009001187079890e-3
      1.021692859616017e-3 1.034544173740109e-3 1.047557137496145e-3 1.060733784186185e-3
      1.074076172688085e-3 1.087586387777192e-3 1.101266540452102e-3 1.115118768264501e-3
      1.129145235653167e-3 1.143348134282168e-3 1.157729683383312e-3 1.172292130102903e-3
      1.187037749852869e-3 1.201968846666297e-3 1.217087753557441e-3 1.232396832886263e-3
      1.247898476727554e-3 1.263595107244704e-3 1.279489177068163e-3 1.295583169678681e-3
      1.311879599795346e-3 1.328381013768519e-3 1.345089989977705e-3 1.362009139234431e-3
      1.379141105190193e-3 1.396488564749525e-3 1.414054228488277e-3 1.431840841077146e-3
      1.449851181710535e-3 1.468088064540813e-3 1.486554339118024e-3 1.505252890835140e-3
      1.524186641378910e-3 1.543358549186375e-3 1.562771609907140e-3 1.582428856871437e-3
      1.602333361564096e-3 1.622488234104472e-3 1.642896623732403e-3 1.663561719300294e-3
      1.684486749771367e-3 1.705674984724207e-3 1.727129734863633e-3 1.748854352538003e-3
      1.770852232263031e-3 1.793126811252175e-3 1.815681569953723e-3 1.838520032594609e-3
      1.861645767731085e-3 1.885062388806319e-3 1.908773554714990e-3 1.932782970375018e-3
      1.957094387306443e-3 1.981711604217624e-3 2.006638467598790e-3 2.031878872323053e-3
      2.057436762255008e-3 2.083316130866952e-3 2.109521021862883e-3 2.136055529810336e-3
      2.162923800780158e-3 2.190130032994357e-3 2.217678477482065e-3 2.245573438743778e-3
      2.273819275423956e-3 2.302420400992035e-3 2.331381284432082e-3 2.360706450941053e-3
      2.390400482635876e-3 2.420468019269423e-3 2.450913758955457e-3 2.481742458902753e-3
      2.512958936158396e-3 2.544568068360467e-3 2.576574794500187e-3 2.608984115693626e-3
      2.641801095963164e-3 2.675030863028732e-3 2.708678609109038e-3 2.742749591732872e-3
      2.777249134560576e-3 2.812182628215916e-3 2.847555531128344e-3 2.883373370385906e-3
      2.919641742598863e-3 2.956366314774155e-3 2.993552825200906e-3 3.031207084347025e-3
      3.069334975767109e-3 3.107942457021773e-3 3.147035560608499e-3 3.186620394904267e-3
      3.226703145119969e-3 3.267290074266870e-3 3.308387524135235e-3 3.350001916285207e-3
      3.392139753050234e-3 3.434807618553037e-3 3.478012179734405e-3 3.521760187394934e-3
      3.566058477249814e-3 3.610913970996970e-3 3.656333677398556e-3 3.702324693376100e-3
      3.748894205119430e-3 3.796049489209486e-3 3.843797913755358e-3 3.892146939545522e-3
      3.941104121213622e-3 3.990677108418905e-3 4.040873647041469e-3 4.091701580392606e-3
      4.143168850440314e-3 4.195283499050239e-3 4.248053669242271e-3 4.301487606462845e-3
      4.355593659873379e-3 4.410380283654791e-3 4.465856038328509e-3 4.522029592094079e-3
      4.578909722183544e-3 4.636505316232970e-3 4.694825373671102e-3 4.753879007125564e-3
      4.813675443846733e-3 4.874224027149499e-3 4.935534217873196e-3 4.997615595859858e-3
      5.060477861451098e-3 5.124130837003814e-3 5.188584468424935e-3 5.253848826725507e-3
      5.319934109594294e-3 5.386850642991194e-3 5.454608882760693e-3 5.523219416265611e-3
      5.592692964041400e-3 5.663040381471243e-3 5.734272660482232e-3 5.806400931262894e-3
      5.879436464002277e-3 5.953390670650970e-3 6.028275106704219e-3 6.104101473007509e-3
      6.180881617584850e-3 6.258627537490037e-3 6.337351380681236e-3 6.417065447919108e-3
      6.497782194688837e-3 6.579514233146329e-3 6.662274334088871e-3 6.746075428950621e-3
      6.830930611823143e-3 6.916853141501394e-3 7.003856443555456e-3 7.091954112428276e-3
      7.181159913559858e-3 7.271487785538120e-3 7.362951842276822e-3 7.455566375220927e-3
      7.549345855579626e-3 7.644304936587522e-3 7.740458455794224e-3 7.837821437382722e-3
      7.936409094516988e-3 8.036236831719016e-3 8.137320247275857e-3 8.239675135676841e-3
      8.343317490081519e-3 8.448263504818641e-3 8.554529577916508e-3 8.662132313665257e-3
      8.771088525211258e-3 8.881415237184241e-3 8.993129688357417e-3 9.106249334341058e-3
      9.220791850310004e-3 9.336775133765405e-3 9.454217307331271e-3 9.573136721586163e-3
      9.693551957930502e-3 9.815481831489954e-3 9.938945394055329e-3 1.006396193705946e-2
      1.019055099459156e-2 1.031873234644939e-2 1.044852602122998e-2 1.057995229945908e-2
      1.071303171676005e-2 1.084778506706259e-2 1.098423340585186e-2 1.112239805345838e-2
      1.126230059838945e-2 1.140396290070235e-2 1.154740709542003e-2 1.169265559598974e-2
      1.183973109778523e-2 1.198865658165287e-2 1.213945531750249e-2 1.229215086794340e-2
      1.244676709196599e-2 1.260332814866985e-2 1.276185850103860e-2 1.292238291976235e-2
      1.308492648710810e-2 1.324951460083895e-2 1.341617297818253e-2 1.358492765984937e-2
      1.375580501410182e-2 1.392883174087410e-2 1.410403487594434e-2 1.428144179515882e-2
      1.446108021870962e-2 1.464297821546589e-2 1.482716420735968e-2 1.501366697382699e-2
      1.520251565630449e-2 1.539373976278306e-2 1.558736917241836e-2 1.578343414019959e-2
      1.598196530167689e-2 1.618299367774814e-2 1.638655067950609e-2 1.659266811314641e-2
      1.680137818493744e-2 1.701271350625255e-2 1.722670709866565e-2 1.744339239911092e-2
      1.766280326510741e-2 1.788497398004930e-2 1.810993925856286e-2 1.833773425193053e-2
      1.856839455358348e-2 1.880195620466311e-2 1.903845569965258e-2 1.927792999207918e-2
      1.952041650028829e-2 1.976595311329017e-2 2.001457819668015e-2 2.026633059863331e-2
      2.052124965597470e-2 2.077937520032564e-2 2.104074756432760e-2 2.130540758794422e-2
      2.157339662484262e-2 2.184475654885510e-2 2.211952976052183e-2 2.239775919371618e-2
      2.267948832235314e-2 2.296476116718222e-2 2.325362230266587e-2 2.354611686394417e-2
      2.384229055388741e-2 2.414218965023722e-2 2.444586101283751e-2 2.475335209095658e-2
      2.506471093070094e-2 2.537998618252277e-2 2.569922710882161e-2 2.602248359164166e-2
      2.634980614046608e-2 2.668124590010905e-2 2.701685465870733e-2 2.735668485581225e-2
      2.770078959058349e-2 2.804922263008594e-2 2.840203841769094e-2 2.875929208158311e-2
      2.912103944337425e-2 2.948733702682564e-2 2.985824206667991e-2 3.023381251760417e-2
      3.061410706324549e-2 3.099918512540032e-2 3.138910687329933e-2 3.178393323300890e-2
      3.218372589695106e-2 3.258854733354293e-2 3.299846079695757e-2 3.341353033700762e-2
      3.383382080915318e-2 3.425939788463562e-2 3.469032806073882e-2 3.512667867117955e-2
      3.556851789662842e-2 3.601591477536332e-2 3.646893921405685e-2 3.692766199869921e-2
      3.739215480565878e-2 3.786249021288167e-2 3.833874171123211e-2 3.882098371597575e-2
      3.930929157840692e-2 3.980374159762259e-2 4.030441103244423e-2 4.081137811348960e-2
      4.132472205539664e-2 4.184452306920064e-2 4.237086237486754e-2 4.290382221398471e-2
      4.344348586261129e-2 4.398993764429038e-2 4.454326294322462e-2 4.510354821761772e-2
      4.567088101318370e-2 4.624534997682606e-2 4.682704487048927e-2 4.741605658518383e-2
      4.801247715518856e-2 4.861639977243092e-2 4.922791880104851e-2 4.984712979213379e-2
      5.047412949866387e-2 5.110901589061853e-2 5.175188817028820e-2 5.240284678777445e-2
      5.306199345668578e-2 5.372943117003016e-2 5.440526421630825e-2 5.508959819580850e-2
      5.578254003710745e-2 5.648419801377772e-2 5.719468176130562e-2 5.791410229422222e-2
      5.864257202344946e-2 5.938020477386453e-2 6.012711580208554e-2 6.088342181448020e-2
      6.164924098540165e-2 6.242469297565343e-2 6.320989895118662e-2 6.400498160203252e-2
      6.481006516147291e-2 6.562527542545185e-2 6.645073977223169e-2 6.728658718229596e-2
      6.813294825850315e-2 6.898995524649330e-2 6.985774205535186e-2 7.073644427853326e-2
      7.162619921504753e-2 7.252714589091385e-2 7.343942508088324e-2 7.436317933043518e-2
      7.529855297805057e-2 7.624569217776482e-2 7.720474492200498e-2 7.817586106471347e-2
      7.915919234476334e-2 8.015489240966772e-2 8.116311683958743e-2 8.218402317164104e-2
      8.321777092451992e-2 8.426452162341363e-2 8.532443882524849e-2 8.639768814424363e-2
      8.748443727778886e-2 8.858485603264722e-2 8.969911635148796e-2 9.082739233975287e-2
      9.196986029286059e-2 9.312669872375325e-2 9.429808839078927e-2 9.548421232598727e-2
      9.668525586362538e-2 9.790140666919974e-2 9.913285476874824e-2 1.003797925785417e-1
      1.016424149351498e-1 1.029209191258847e-1 1.042155049196271e-1 1.055263745980414e-1
      1.068537329871817e-1 1.081977874894969e-1 1.095587481162374e-1 1.109368275202700e-1
      1.123322410293054e-1 1.137452066795434e-1 1.151759452497415e-1 1.166246802957122e-1
      1.180916381852537e-1 1.195770481335210e-1 1.210811422388407e-1 1.226041555189766e-1
      1.241463259478525e-1 1.257078944927352e-1 1.272891051518873e-1 1.288902049926911e-1
      1.305114441902541e-1 1.321530760664994e-1 1.338153571297476e-1 1.354985471147968e-1
      1.372029090235066e-1 1.389287091658929e-1 1.406762172017390e-1 1.424457061827308e-1
      1.442374525951217e-1 1.460517364029340e-1 1.478888410917039e-1 1.497490537127764e-1
      1.516326649281583e-1 1.535399690559345e-1 1.554712641162551e-1 1.574268518779026e-1
      1.594070379054434e-1 1.614121316069730e-1 1.634424462824619e-1 1.654982991727086e-1
      1.675800115089099e-1 1.696879085628537e-1 1.718223196977431e-1 1.739835784196605e-1
      1.761720224296784e-1 1.783879936766257e-1 1.806318384105182e-1 1.829039072366605e-1
      1.852045551704295e-1 1.875341416927455e-1 1.898930308062422e-1 1.922815910921427e-1
      1.947001957678512e-1 1.971492227452692e-1 1.996290546898443e-1 2.021400790803632e-1
      2.046826882694956e-1 2.072572795451001e-1 2.098642551923019e-1 2.125040225563496e-1
      2.151769941062645e-1 2.178835874992896e-1 2.206242256461489e-1 2.233993367771289e-1
      2.262093545089900e-1 2.290547179127195e-1 2.319358715821384e-1 2.348532657033689e-1
      2.378073561251785e-1 2.407986044302056e-1 2.438274780070833e-1 2.468944501234705e-1
      2.500000000000000e-1 2.531446128851587e-1 2.563287801311073e-1 2.595529992704564e-1
      2.628177740940062e-1 2.661236147294648e-1 2.694710377211579e-1 2.728605661107380e-1
      2.762927295189121e-1 2.797680642281954e-1 2.832871132667066e-1 2.868504264930181e-1
      2.904585606820709e-1 2.941120796121728e-1 2.978115541530897e-1 3.015575623552452e-1
      3.053506895400425e-1 3.091915283913213e-1 3.130806790479663e-1 3.170187491976801e-1
      3.210063541719354e-1 3.250441170421228e-1 3.291326687169055e-1 3.332726480408009e-1
      3.374647018940010e-1 3.417094852934491e-1 3.460076614951879e-1 3.503599020979935e-1
      3.547668871483145e-1 3.592293052465314e-1 3.637478536545503e-1 3.683232384047539e-1
      3.729561744103177e-1 3.776473855769184e-1 3.823976049158450e-1 3.872075746585333e-1
      3.920780463725423e-1 3.970097810789860e-1 4.020035493714460e-1 4.070601315363778e-1
      4.121803176750321e-1 4.173649078269108e-1 4.226147120947729e-1 4.279305507712163e-1
      4.333132544668491e-1 4.387636642400746e-1 4.442826317285097e-1 4.498710192820523e-1
      4.555297000976275e-1 4.612595583556253e-1 4.670614893580556e-1 4.729363996684425e-1
      4.788852072534741e-1 4.849088416264387e-1 4.910082439924621e-1 4.971843673955730e-1
      5.034381768676193e-1 5.097706495790540e-1 5.161827749916219e-1 5.226755550129642e-1
      5.292500041531687e-1 5.359071496832899e-1 5.426480317958608e-1 5.494737037674257e-1
      5.563852321231173e-1 5.633836968033021e-1 5.704701913323261e-1 5.776458229893762e-1
      5.849117129814980e-1 5.922689966187854e-1 5.997188234917745e-1 6.072623576510722e-1
      6.149007777892377e-1 6.226352774249580e-1 6.304670650895375e-1 6.383973645157317e-1
      6.464274148289617e-1 6.545584707409255e-1 6.627918027456520e-1 6.711286973180180e-1
      6.795704571147613e-1 6.881184011780269e-1 6.967738651414629e-1 7.055382014389249e-1
      7.144127795157914e-1 7.233989860429403e-1 7.324982251334262e-1 7.417119185618671e-1
      7.510415059866080e-1 7.604884451746664e-1 7.700542122295078e-1 7.797403018216988e-1
      7.895482274224422e-1 7.994795215400686e-1 8.095357359594908e-1 8.197184419846684e-1
      8.300292306841378e-1 8.404697131396077e-1 8.510415206977044e-1 8.617463052248693e-1
      8.725857393654604e-1 8.835615168031183e-1 8.946753525253952e-1 9.059289830917352e-1
      9.173241669048117e-1 9.288626844852759e-1 9.405463387499786e-1 9.523769552936656e-1
      9.643563826742433e-1 9.764864927016138e-1 9.887691807301444e-1 1.001206365954832e0
      1.013799991711169e0 1.026552025778803e0 1.039464460689003e0 1.052539314035990e0
      1.065778628792206e0 1.079184473627511e0 1.092758943232439e0 1.106504158645484e0
      1.120422267584516e0 1.134515444782377e0 1.148785892326672e0 1.163235840003867e0
      1.177867545647686e0 1.192683295491901e0 1.207685404527571e0 1.222876216864752e0
      1.238258106098778e0 1.253833475681141e0 1.269604759295020e0 1.285574421235573e0
      1.301744956794963e0 1.318118892652272e0 1.334698787268295e0 1.351487231285292e0
      1.368486847931801e0 1.385700293432506e0 1.403130257423289e0 1.420779463371487e0
      1.438650669001433e0 1.456746666725370e0 1.475070284079754e0 1.493624384167080e0
      1.512411866103237e0 1.531435665470497e0 1.550698754776218e0 1.570204143917292e0
      1.589954880650457e0 1.609954051068516e0 1.630204780082528e0 1.650710231910109e0
      1.671473610569818e0 1.692498160381818e0 1.713787166474796e0 1.735343955299259e0
      1.757171895147325e0 1.779274396678999e0 1.801654913455116e0 1.824316942476959e0
      1.847264024732663e0 1.870499745750521e0 1.894027736159212e0 1.917851672255107e0
      1.941975276576694e0 1.966402318486223e0 1.991136614758695e0 2.016182030178219e0
      2.041542478141912e0 2.067221921271369e0 2.093224372031816e0 2.119553893359095e0
      2.146214599294474e0 2.173210655627500e0 2.200546280546903e0 2.228225745299684e0
      2.256253374858533e0 2.284633548597582e0 2.313370700976722e0 2.342469322234484e0
      2.371933959089632e0 2.401769215451628e0 2.431979753139972e0 2.462570292612645e0
      2.493545613703682e0 2.524910556370013e0 2.556670021447752e0 2.588828971417924e0
      2.621392431181893e0 2.654365488846503e0 2.687753296519089e0 2.721561071112538e0
      2.755794095160401e0 2.790457717642341e0 2.825557354819897e0 2.861098491082780e0
      2.897086679805851e0 2.933527544216803e0 2.970426778274849e0 3.007790147560385e0
      3.045623490175868e0 3.083932717658067e0 3.122723815901703e0 3.162002846094806e0
      3.201775945665760e0 3.242049329242283e0 3.282829289622507e0 3.324122198758197e0
      3.365934508750427e0 3.408272752857691e0 3.451143546516774e0 3.494553588376412e0
      3.538509661343952e0 3.583018633645237e0 3.628087459897731e0 3.673723182197235e0
      3.719932931218212e0 3.766723927327948e0 3.814103481714795e0 3.862078997530507e0
      3.910657971047043e0 3.959847992827858e0 4.009656748913919e0 4.060092022024715e0
      4.111161692774266e0 4.162873740902536e0 4.215236246522262e0 4.268257391381465e0
      4.321945460141916e0 4.376308841673572e0 4.431356030365411e0 4.487095627452664e0
      4.543536342360767e0 4.600686994066268e0 4.658556512474754e0 4.717153939816221e0
      4.776488432057917e0 4.836569260334954e0 4.897405812399005e0 4.959007594085083e0
      5.021384230796917e0 5.084545469010907e0 5.148501177799009e0 5.213261350370859e0
      5.278836105635157e0 5.345235689780836e0 5.412470477878019e0 5.480550975499118e0
      5.549487820360416e0 5.619291783984156e0 5.689973773381682e0 5.761544832757650e0
      5.834016145235680e0 5.907399034605812e0 5.981704967093788e0 6.056945553152745e0
      6.133132549277343e0 6.210277859840712e0 6.288393538954599e0 6.367491792352774e0
      6.447584979298266e0 6.528685614514498e0 6.610806370140700e0 6.693960077712039e0
      6.778159730164477e0 6.863418483865025e0 6.949749660667423e0 7.037166749993664e0
      7.125683410941829e0 7.215313474420259e0 7.306070945308735e0 7.397970004646745e0
      7.491025011849256e0 7.585250506950490e0 7.680661212875734e0 7.777272037741915e0
      7.875098077186991e0 7.974154616728625e0 8.074457134152681e0 8.176021301931543e0
      8.278862989673078e0 8.382998266600241e0 8.488443404061888e0 8.595214878075307e0
      8.703329371900512e0 8.812803778647135e0 8.923655203913977e0 9.035900968461734e0
      9.149558610919510e0 9.264645890525149e0 9.381180789900251e0 9.499181517859951e0
      9.618666512258034e0 9.739654442868005e0 9.862164214300138e0 9.986214968955483e0
      1.011182609001686e1 1.023901720447745e1 1.036780818620770e1 1.049821915906050e1
      1.063027050001570e1 1.076398284236399e1 1.089937707893088e1 1.103647436534132e1
      1.117529612332522e1 1.131586404406469e1 1.145820009158338e1 1.160232650617824e1
      1.174826580789484e1 1.189604080004593e1 1.204567457277470e1 1.219719050666262e1
      1.235061227638255e1 1.250596385439820e1 1.266326951470967e1 1.282255383664643e1
      1.298384170870787e1 1.314715833245211e1 1.331252922643392e1 1.347998023019189e1
      1.364953750828606e1 1.382122755438612e1 1.399507719541104e1 1.417111359572097e1
      1.434936426136156e1 1.452985704436200e1 1.471262014708687e1 1.489768212664275e1
      1.508507189934051e1 1.527481874521334e1 1.546695231259197e1 1.566150262273723e1
      1.585850007453084e1 1.605797544922549e1 1.625995991525425e1 1.646448503310093e1
      1.667158276023130e1 1.688128545608654e1 1.709362588713956e1 1.730863723201466e1
      1.752635308667196e1 1.774680746965673e1 1.797003482741477e1 1.819607003967494e1
      1.842494842489896e1 1.865670574580023e1 1.889137821493167e1 1.912900250034397e1
      1.936961573131524e1 1.961325550415229e1 1.985995988806533e1 2.010976743111633e1
      2.036271716624204e1 2.061884861735328e1 2.087820180551032e1 2.114081725517650e1
      2.140673600055016e1 2.167599959197623e1 2.194865010243873e1 2.222473013413458e1
      2.250428282513045e1 2.278735185610311e1 2.307398145716447e1 2.336421641477294e1
      2.365810207873104e1 2.395568436927172e1 2.425700978423336e1 2.456212540632502e1
      2.487107891048349e1 2.518391857132228e1 2.550069327067492e1 2.582145250523272e1
      2.614624639427856e1 2.647512568751851e1 2.680814177301114e1 2.714534668519740e1
      2.748679311303091e1 2.783253440821059e1 2.818262459351733e1 2.853711837125476e1
      2.889607113179692e1 2.925953896224298e1 2.962757865518084e1 3.000024771756139e1
      3.037760437968374e1 3.075970760429414e1 3.114661709579886e1 3.153839330959304e1
      3.193509746150726e1 3.233679153737224e1 3.274353830270465e1 3.315540131251417e1
      3.357244492123388e1 3.399473429277628e1 3.442233541071468e1 3.485531508859379e1
      3.529374098036925e1 3.573768159097851e1 3.618720628704529e1 3.664238530771780e1
      3.710328977564415e1 3.756999170808525e1 3.804256402816740e1 3.852108057627723e1
      3.900561612159878e1 3.949624637379687e1 3.999304799484667e1 4.049609861101209e1
      4.100547682497550e1 4.152126222811903e1 4.204353541296136e1 4.257237798575029e1
      4.310787257921358e1 4.365010286547111e1 4.419915356910812e1 4.475511048041417e1
      4.531806046878784e1 4.588809149631000e1 4.646529263148858e1 4.704975406317512e1
      4.764156711465750e1 4.824082425792915e1 4.884761912813774e1 4.946204653821644e1
      5.008420249369796e1 5.071418420771622e1 5.135209011619584e1 5.199801989323266e1
      5.265207446666869e1 5.331435603386152e1 5.398496807765353e1 5.466401538254105e1
      5.535160405104680e1 5.604784152029932e1 5.675283657881953e1 5.746669938351971e1
      5.818954147691557e1 5.892147580455465e1 5.966261673266497e1 6.041308006602420e1
      6.117298306605510e1 6.194244446914759e1 6.272158450521115e1 6.351052491646183e1
      6.430938897644374e1 6.511830150929170e1 6.593738890923482e1 6.676677916034554e1
      6.760660185653825e1 6.845698822181764e1 6.931807113078349e1 7.018998512939238e1
      7.107286645598023e1 7.196685306255084e1 7.287208463633005e1 7.378870262159308e1
      7.471685024176515e1 7.565667252179996e1 7.660831631084115e1 7.757193030516660e1
      7.854766507142355e1 7.953567307015452e1 8.053610867961913e1 8.154912821991708e1
      8.257488997741223e1 8.361355422946627e1 8.466528326948190e1 8.573024143226110e1
      8.680859511968377e1 8.790051282670721e1 8.900616516769478e1 9.012572490307443e1
      9.125936696633223e1 9.240726849134731e1 9.356960884006805e1 9.474656963053889e1
      9.593833476527806e1 9.714509046001220e1 9.836702527277412e1 9.960433013336399e1
      1.008571983731838e2
      </PP_R>
    <PP_RAB>
      2.849631142357863e-6 2.885475089590695e-6 2.921769898176819e-6 2.958521239253918e-6
      2.995734855293813e-6 3.033416560999715e-6 3.071572244214808e-6 3.110207866842223e-6
      3.149329465776595e-6 3.188943153847358e-6 3.229055120773866e-6 3.269671634132558e-6
      3.310799040336282e-6 3.352443765625927e-6 3.394612317074556e-6 3.437311283604120e-6
      3.480547337015010e-6 3.524327233028539e-6 3.568657812342523e-6 3.613546001700180e-6
      3.658998814972420e-6 3.705023354253791e-6 3.751626810972190e-6 3.798816467012546e-6
      3.846599695854628e-6 3.894983963725155e-6 3.943976830764421e-6 3.993585952207576e-6
      4.043819079580775e-6 4.094684061912375e-6 4.146188846959348e-6 4.198341482449147e-6
      4.251150117337168e-6 4.304623003080054e-6 4.358768494924997e-6 4.413595053215255e-6
      4.469111244712108e-6 4.525325743933424e-6 4.582247334509073e-6 4.639884910553397e-6
      4.698247478054913e-6 4.757344156283537e-6 4.817184179215470e-6 4.877776896976039e-6
      4.939131777300679e-6 5.001258407014264e-6 5.064166493529084e-6 5.127865866361645e-6
      5.192366478668545e-6 5.257678408801691e-6 5.323811861883043e-6 5.390777171399194e-6
      5.458584800815999e-6 5.527245345213502e-6 5.596769532941469e-6 5.667168227295673e-6
      5.738452428215336e-6 5.810633274001878e-6 5.883722043059304e-6 5.957730155656489e-6
      6.032669175711592e-6 6.108550812598960e-6 6.185386922978740e-6 6.263189512649499e-6
      6.341970738424170e-6 6.421742910029559e-6 6.502518492029780e-6 6.584310105773856e-6
      6.667130531367839e-6 6.750992709671734e-6 6.835909744321516e-6 6.921894903776614e-6
      7.008961623393135e-6 7.097123507523147e-6 7.186394331640427e-6 7.276788044492855e-6
      7.368318770281979e-6 7.461000810869917e-6 7.554848648014073e-6 7.649876945629948e-6
      7.746100552082371e-6 7.843534502505621e-6 7.942194021152684e-6 8.042094523774061e-6
      8.143251620026557e-6 8.245681115912255e-6 8.349399016248283e-6 8.454421527167584e-6
      8.560765058651153e-6 8.668446227092154e-6 8.777481857892228e-6 8.887888988090523e-6
      8.999684869025762e-6 9.112886969031774e-6 9.227512976167022e-6 9.343580800978312e-6
      9.461108579299424e-6 9.580114675084824e-6 9.700617683279090e-6 9.822636432722440e-6
      9.946189989092712e-6 1.007129765788446e-5 1.019797898742547e-5 1.032625377193119e-5
      1.045614205459773e-5 1.058766413073347e-5 1.072084055093042e-5 1.085569212427517e-5
      1.099223992160040e-5 1.113050527877728e-5 1.127050980004916e-5 1.141227536140732e-5
      1.155582411400916e-5 1.170117848763932e-5 1.184836119421440e-5 1.199739523133176e-5
      1.214830388586291e-5 1.230111073759213e-5 1.245583966290091e-5 1.261251483849862e-5
      1.277116074520021e-5 1.293180217175136e-5 1.309446421870181e-5 1.325917230232731e-5
      1.342595215860106e-5 1.359482984721490e-5 1.376583175565127e-5 1.393898460330626e-5
      1.411431544566458e-5 1.429185167852710e-5 1.447162104229139e-5 1.465365162628629e-5
      1.483797187316087e-5 1.502461058332870e-5 1.521359691946801e-5 1.540496041107829e-5
      1.559873095909443e-5 1.579493884055879e-5 1.599361471335204e-5 1.619478962098352e-5
      1.639849499744183e-5 1.660476267210649e-5 1.681362487472132e-5 1.702511424043039e-5
      1.723926381487741e-5 1.745610705936906e-5 1.767567785610346e-5 1.789801051346433e-5
      1.812313977138169e-5 1.835110080676016e-5 1.858192923897530e-5 1.881566113543925e-5
      1.905233301723637e-5 1.929198186482969e-5 1.953464512383926e-5 1.978036071089296e-5
      2.002916701955120e-5 2.028110292630589e-5 2.053620779665504e-5 2.079452149125367e-5
      2.105608437214209e-5 2.132093730905259e-5 2.158912168579541e-5 2.186067940672504e-5
      2.213565290328789e-5 2.241408514065219e-5 2.269601962442154e-5 2.298150040743262e-5
      2.327057209663856e-5 2.356327986007899e-5 2.385966943393738e-5 2.415978712968772e-5
      2.446367984133055e-5 2.477139505272030e-5 2.508298084498488e-5 2.539848590403816e-5
      2.571795952818760e-5 2.604145163583691e-5 2.636901277328603e-5 2.670069412262920e-5
      2.703654750975198e-5 2.737662541242946e-5 2.772098096852581e-5 2.806966798429724e-5
      2.842274094279945e-5 2.878025501240043e-5 2.914226605540102e-5 2.950883063676317e-5
      2.988000603294845e-5 3.025585024086779e-5 3.063642198694321e-5 3.102178073628441e-5
      3.141198670197995e-5 3.180710085450584e-5 3.220718493125235e-5 3.261230144617033e-5