<UPF version="2.0.1">
  <PP_INFO>
Generated using "atomic" code by A. Dal Corso  v.6.2.2
Author: ADC
Generation date:  4May2018
Pseudopotential type: USPP
Element: Bi
Functional: PBE
    Suggested minimum cutoff for wavefunctions:  45. Ry
    Suggested minimum cutoff for charge density: 455. Ry
    The Pseudo was generated with a Scalar-Relativistic Calculation
    Local Potential by smoothing AE potential with Bessel fncs, cutoff radius:   2.1000
    Pseudopotential contains additional information for GIPAW reconstruction.
    Valence configuration:
    nl pn  l   occ       Rcut    Rcut US       E pseu
    6S  1  0  2.00      1.700      2.000    -1.064016
    6P  2  1  3.00      2.200      2.400    -0.335940
    5D  3  2 10.00      0.900      1.600    -1.990502
    Generation configuration:
    6S  1  0  2.00      1.700      2.000    -1.064012
    6S  1  0  0.00      1.700      2.000     4.000000
    6P  2  1  3.00      2.200      2.400    -0.335938
    6P  2  1  0.00      2.200      2.400     6.000000
    5D  3  2 10.00      0.900      1.600    -1.990501
    5D  3  2  0.00      0.900      1.600     6.000000
    Pseudization used: troullier-martins

    <PP_INPUTFILE>
 &amp;input
   title='Bi',
   zed=83.,
   rel=1,
   config='[Xe] 4f14 6s2 6p3 5d10',
   iswitch=3,
   dft='PBE'
 /
 &amp;inputp
   lpaw=.false.,
   use_xsd=.FALSE.,
   pseudotype=3,
   file_pseudopw='Bi.pbe-dn-rrkjus_psl.1.0.0.UPF',
   author='ADC',
   lloc=-1,
   rcloc=2.1,
   which_augfun='PSQ',
   rmatch_augfun_nc=.true.,
   nlcc=.true.,
   new_core_ps=.true.,
   rcore=1.6,
   tm=.true.
 /
6
6S  1  0  2.00  0.00  1.70  2.00  0.0
6S  1  0  0.00  4.00  1.70  2.00  0.0
6P  2  1  3.00  0.00  2.20  2.40  0.0
6P  2  1  0.00  6.00  2.20  2.40  0.0
5D  3  2 10.00  0.00  0.90  1.60  0.0
5D  3  2  0.00  6.00  0.90  1.60  0.0
</PP_INPUTFILE>
  </PP_INFO>
  <!--
 END OF HUMAN READABLE SECTION 
-->
  <PP_HEADER generated="Generated using &quot;atomic&quot; code by A. Dal Corso  v.6.2.2" author="ADC" date=" 4May2018" comment="" element="Bi" pseudo_type="USPP" relativistic="scalar" is_ultrasoft="true" is_paw="false" is_coulomb="false" has_so="false" has_wfc="false" has_gipaw="true" paw_as_gipaw="false" core_correction="true" functional="PBE" z_valence="1.500000000000e1" total_psenergy="-1.549065679491e2" wfc_cutoff="4.523541217149e1" rho_cutoff="4.546623047672e2" l_max="2" l_max_rho="4" l_local="-1" mesh_size="1283" number_of_wfc="3" number_of_proj="6"/>
  <PP_MESH dx="1.250000000000e-2" mesh="1283" xmin="-7.000000000000e0" rmax="1.000000000000e2" zmesh="8.300000000000e1">
    <PP_R>
      1.098652970547610e-5 1.112472323697617e-5 1.126465502911545e-5 1.140634694652113e-5
      1.154982112884361e-5 1.169509999421577e-5 1.184220624275589e-5 1.199116286011459e-5
      1.214199312106639e-5 1.229472059314644e-5 1.244936914033298e-5 1.260596292677613e-5
      1.276452642057362e-5 1.292508439759394e-5 1.308766194534769e-5 1.325228446690745e-5
      1.341897768487715e-5 1.358776764541123e-5 1.375868072228442e-5 1.393174362101274e-5
      1.410698338302620e-5 1.428442738989413e-5 1.446410336760362e-5 1.464603939089174e-5
      1.483026388763230e-5 1.501680564327771e-5 1.520569380535680e-5 1.539695788802921e-5
      1.559062777669696e-5 1.578673373267422e-5 1.598530639791556e-5 1.618637679980394e-5
      1.638997635599872e-5 1.659613687934478e-5 1.680489058284336e-5 1.701627008468532e-5
      1.723030841334789e-5 1.744703901275537e-5 1.766649574750486e-5 1.788871290815768e-5
      1.811372521659726e-5 1.834156783145460e-5 1.857227635360181e-5 1.880588683171484e-5
      1.904243576790623e-5 1.928196012342849e-5 1.952449732444948e-5 1.977008526790031e-5
      2.001876232739679e-5 2.027056735923543e-5 2.052553970846474e-5 2.078371921503304e-5
      2.104514622001349e-5 2.130986157190748e-5 2.157790663302735e-5 2.184932328595922e-5
      2.212415394010732e-5 2.240244153832049e-5 2.268422956360214e-5 2.296956204590454e-5
      2.325848356900854e-5 2.355103927748996e-5 2.384727488377345e-5 2.414723667527516e-5
      2.445097152163535e-5 2.475852688204168e-5 2.506995081264494e-5 2.538529197406788e-5
      2.570459963900853e-5 2.602792369993921e-5 2.635531467690223e-5 2.668682372540382e-5
      2.702250264440726e-5 2.736240388442659e-5 2.770658055572212e-5 2.805508643659895e-5
      2.840797598181004e-5 2.876530433106473e-5 2.912712731764461e-5 2.949350147712750e-5
      2.986448405622118e-5 3.024013302170841e-5 3.062050706950432e-5 3.100566563382770e-5
      3.139566889648793e-5 3.179057779628821e-5 3.219045403854759e-5 3.259536010474248e-5
      3.300535926226949e-5 3.342051557433118e-5 3.384089390994593e-5 3.426655995408395e-5
      3.469758021793063e-5 3.513402204927913e-5 3.557595364305357e-5 3.602344405196458e-5
      3.647656319729898e-5 3.693538187984510e-5 3.739997179095553e-5 3.787040552374916e-5
      3.834675658445381e-5 3.882909940389188e-5 3.931750934911022e-5 3.981206273515641e-5
      4.031283683700329e-5 4.081990990162303e-5 4.133336116021367e-5 4.185327084057897e-5
      4.237972017966420e-5 4.291279143624975e-5 4.345256790380398e-5 4.399913392349811e-5
      4.455257489738472e-5 4.511297730174193e-5 4.568042870058564e-5 4.625501775935136e-5
      4.683683425874857e-5 4.742596910878896e-5 4.802251436299144e-5 4.862656323276576e-5
      4.923821010197670e-5 4.985755054169202e-5 5.048468132511542e-5 5.111970044270773e-5
      5.176270711749807e-5 5.241380182058757e-5 5.307308628684826e-5 5.374066353081929e-5
      5.441663786280321e-5 5.510111490516474e-5 5.579420160883429e-5 5.649600627001941e-5
      5.720663854712623e-5 5.792620947789380e-5 5.865483149674413e-5 5.939261845235002e-5
      6.013968562542430e-5 6.089614974673269e-5 6.166212901533314e-5 6.243774311704488e-5
      6.322311324314921e-5 6.401836210932622e-5 6.482361397482918e-5 6.563899466190031e-5
      6.646463157543097e-5 6.730065372286866e-5 6.814719173437480e-5 6.900437788323598e-5
      6.987234610653181e-5 7.075123202606327e-5 7.164117296954331e-5 7.254230799205493e-5
      7.345477789777878e-5 7.437872526199398e-5 7.531429445335616e-5 7.626163165645478e-5
      7.722088489465520e-5 7.819220405322756e-5 7.917574090276641e-5 8.017164912290569e-5
      8.118008432633093e-5 8.220120408309430e-5 8.323516794523533e-5 8.428213747171096e-5
      8.534227625364005e-5 8.641574993986385e-5 8.750272626283001e-5 8.860337506480043e-5
      8.971786832438960e-5 9.084638018343705e-5 9.198908697421640e-5 9.314616724698881e-5
      9.431780179790088e-5 9.550417369723487e-5 9.670546831801396e-5 9.792187336496641e-5
      9.915357890385577e-5 1.004007773911784e-4 1.016636637042353e-4 1.029424351715825e-4
      1.042372916038631e-4 1.055484353250292e-4 1.068760712039549e-4 1.082204066864472e-4
      1.095816518276605e-4 1.109600193249173e-4 1.123557245509437e-4 1.137689855875206e-4
      1.152000232595603e-4 1.166490611696108e-4 1.181163257327931e-4 1.196020462121809e-4
      1.211064547546215e-4 1.226297864270105e-4 1.241722792530211e-4 1.257341742502953e-4
      1.273157154681043e-4 1.289171500254811e-4 1.305387281498332e-4 1.321807032160420e-4
      1.338433317860519e-4 1.355268736489598e-4 1.372315918616069e-4 1.389577527896822e-4
      1.407056261493428e-4 1.424754850493568e-4 1.442676060337786e-4 1.460822691251578e-4
      1.479197578682944e-4 1.497803593745433e-4 1.516643643666747e-4 1.535720672243021e-4
      1.555037660298780e-4 1.574597626152708e-4 1.594403626089270e-4 1.614458754836244e-4
      1.634766146048305e-4 1.655328972796644e-4 1.676150448064773e-4 1.697233825250571e-4
      1.718582398674609e-4 1.740199504094925e-4 1.762088519228220e-4 1.784252864277638e-4
      1.806696002467195e-4 1.829421440582885e-4 1.852432729520655e-4 1.875733464841216e-4
      1.899327287331866e-4 1.923217883575376e-4 1.947408986526009e-4 1.971904376092823e-4
      1.996707879730272e-4 2.021823373036260e-4 2.047254780357721e-4 2.073006075403781e-4
      2.099081281866689e-4 2.125484474050501e-4 2.152219777507715e-4 2.179291369683893e-4
      2.206703480570383e-4 2.234460393365287e-4 2.262566445142700e-4 2.291026027530392e-4
      2.319843587396015e-4 2.349023627541927e-4 2.378570707408769e-4 2.408489443787883e-4
      2.438784511542698e-4 2.469460644339188e-4 2.500522635385511e-4 2.531975338180967e-4
      2.563823667274359e-4 2.596072599031900e-4 2.628727172414792e-4 2.661792489766560e-4
      2.695273717610313e-4 2.729176087456020e-4 2.763504896617943e-4 2.798265509042359e-4
      2.833463356145676e-4 2.869103937663118e-4 2.905192822508056e-4 2.941735649642173e-4
      2.978738128956554e-4 3.016206042163873e-4 3.054145243701800e-4 3.092561661647763e-4
      3.131461298645222e-4 3.170850232841604e-4 3.210734618838010e-4 3.251120688650903e-4
      3.292014752685852e-4 3.333423200723563e-4 3.375352502918292e-4 3.417809210808808e-4
      3.460799958342100e-4 3.504331462909937e-4 3.548410526398469e-4 3.593044036251050e-4
      3.638238966544398e-4 3.684002379078324e-4 3.730341424479144e-4 3.777263343316974e-4
      3.824775467237103e-4 3.872885220105550e-4 3.921600119169089e-4 3.970927776229804e-4
      4.020875898834468e-4 4.071452291478862e-4 4.122664856827233e-4 4.174521596947111e-4
      4.227030614559642e-4 4.280200114305659e-4 4.334038404027670e-4 4.388553896067981e-4
      4.443755108583133e-4 4.499650666874894e-4 4.556249304737962e-4 4.613559865824659e-4
      4.671591305026748e-4 4.730352689874677e-4 4.789853201954375e-4 4.850102138341910e-4
      4.911108913056172e-4 4.972883058529825e-4 5.035434227098786e-4 5.098772192510399e-4
      5.162906851450626e-4 5.227848225090406e-4 5.293606460651496e-4 5.360191832991992e-4
      5.427614746211785e-4 5.495885735278241e-4 5.565015467672304e-4 5.635014745055299e-4
      5.705894504956738e-4 5.777665822483309e-4 5.850339912049394e-4 5.923928129129347e-4
      5.998441972031801e-4 6.073893083696310e-4 6.150293253512579e-4 6.227654419162580e-4
      6.305988668485830e-4 6.385308241368169e-4 6.465625531654235e-4 6.546953089084035e-4
      6.629303621253886e-4 6.712689995601975e-4 6.797125241418956e-4 6.882622551883768e-4
      6.969195286125119e-4 7.056856971308862e-4 7.145621304751653e-4 7.235502156061198e-4
      7.326513569303370e-4 7.418669765196652e-4 7.511985143334153e-4 7.606474284433540e-4
      7.702151952615369e-4 7.799033097709946e-4 7.897132857593294e-4 7.996466560552486e-4
      8.097049727680695e-4 8.198898075302434e-4 8.302027517429224e-4 8.406454168246224e-4
      8.512194344630075e-4 8.619264568698458e-4 8.727681570391741e-4 8.837462290087004e-4
      8.948623881245050e-4 9.061183713090657e-4 9.175159373326546e-4 9.290568670881532e-4
      9.407429638693152e-4 9.525760536525386e-4 9.645579853821758e-4 9.766906312594365e-4
      9.889758870349253e-4 1.001415672304850e-3 1.014011930810969e-3 1.026766630744300e-3
      1.039681765052657e-3 1.052759351752053e-3 1.066001434242016e-3 1.079410081624876e-3
      1.092987389029067e-3 1.106735477936493e-3 1.120656496514018e-3 1.134752619949117e-3
      1.149026050789755e-3 1.163479019288540e-3 1.178113783751205e-3 1.192932630889473e-3
      1.207937876178358e-3 1.223131864217965e-3 1.238516969099837e-3 1.254095594777911e-3
      1.269870175444149e-3 1.285843175908870e-3 1.302017091985895e-3 1.318394450882518e-3
      1.334977811594385e-3 1.351769765305346e-3 1.368772935792334e-3 1.385989979835331e-3
      1.403423587632494e-3 1.421076483220513e-3 1.438951424900236e-3 1.457051205667671e-3
      1.475378653650385e-3 1.493936632549413e-3 1.512728042086715e-3 1.531755818458260e-3
      1.551022934792822e-3 1.570532401616526e-3 1.590287267323256e-3 1.610290618650970e-3
      1.630545581164009e-3 1.651055319741476e-3 1.671823039071750e-3 1.692851984153231e-3
      1.714145440801369e-3 1.735706736162088e-3 1.757539239231655e-3 1.779646361383095e-3
      1.802031556899218e-3 1.824698323512369e-3 1.847650202950946e-3 1.870890781492807e-3
      1.894423690525635e-3 1.918252607114341e-3 1.942381254575625e-3 1.966813403059740e-3
      1.991552870139597e-3 2.016603521407260e-3 2.041969271077954e-3 2.067654082601673e-3
      2.093661969282472e-3 2.119996994905560e-3 2.146663274372271e-3 2.173664974343023e-3
      2.201006313888371e-3 2.228691565148244e-3 2.256725053999483e-3 2.285111160731751e-3
      2.313854320731978e-3 2.342959025177394e-3 2.372429821737278e-3 2.402271315283556e-3
      2.432488168610307e-3 2.463085103162339e-3 2.494066899772926e-3 2.525438399410817e-3
      2.557204503936664e-3 2.589370176868924e-3 2.621940444159433e-3 2.654920394978722e-3
      2.688315182511202e-3 2.722130024760372e-3 2.756370205364127e-3 2.791041074420348e-3
      2.826148049322865e-3 2.861696615607929e-3 2.897692327811352e-3 2.934140810336396e-3
      2.971047758332610e-3 3.008418938585708e-3 3.046260190418632e-3 3.084577426603977e-3
      3.123376634287851e-3 3.162663875925390e-3 3.202445290228034e-3 3.242727093122698e-3
      3.283515578723044e-3 3.324817120312931e-3 3.366638171342259e-3 3.408985266435338e-3
      3.451865022411929e-3 3.495284139321148e-3 3.539249401488349e-3 3.583767678575189e-3
      3.628845926653040e-3 3.674491189289872e-3 3.720710598650842e-3 3.767511376612698e-3
      3.814900835892210e-3 3.862886381188806e-3 3.911475510341564e-3 3.960675815500774e-3
      4.010494984314212e-3 4.060940801128367e-3 4.112021148204747e-3 4.163744006951500e-3
      4.216117459170547e-3 4.269149688320348e-3 4.322848980794600e-3 4.377223727217006e-3
      4.432282423752318e-3 4.488033673433891e-3 4.544486187507917e-3 4.601648786794568e-3
      4.659530403066283e-3 4.718140080443361e-3 4.777486976807143e-3 4.837580365230925e-3
      4.898429635428908e-3 4.960044295223359e-3 5.022433972030221e-3 5.085608414363440e-3
      5.149577493358155e-3 5.214351204313104e-3 5.279939668252403e-3 5.346353133506987e-3
      5.413601977315924e-3 5.481696707447875e-3 5.550647963842964e-3 5.620466520275285e-3
      5.691163286036323e-3 5.762749307639568e-3 5.835235770546538e-3 5.908634000914534e-3
      5.982955467366384e-3 6.058211782782420e-3 6.134414706115050e-3 6.211576144226074e-3
      6.289708153747185e-3 6.368822942963827e-3 6.448932873722775e-3 6.530050463363701e-3
      6.612188386675020e-3 6.695359477874358e-3 6.779576732613927e-3 6.864853310011121e-3
      6.951202534704660e-3 7.038637898936578e-3 7.127173064660425e-3 7.216821865675972e-3
      7.307598309790764e-3 7.399516581008890e-3 7.492591041747232e-3 7.586836235079643e-3
      7.682266887009323e-3 7.778897908769784e-3 7.876744399154790e-3 7.975821646877521e-3
      8.076145132959514e-3 8.177730533149575e-3 8.280593720373160e-3 8.384750767212555e-3
      8.490217948418238e-3 8.597011743451842e-3 8.705148839061117e-3 8.814646131887249e-3
      8.925520731105035e-3 9.037789961096172e-3 9.151471364156251e-3 9.266582703235795e-3
      9.383141964715723e-3 9.501167361217794e-3 9.620677334450328e-3 9.741690558089793e-3
      9.864225940698585e-3 9.988302628679524e-3 1.011394000926756e-2 1.024115771355902e-2
      1.036997561957901e-2 1.050041385538745e-2 1.063249280222404e-2 1.076623309769296e-2
      1.090165563898747e-2 1.103878158615516e-2 1.117763236540426e-2 1.131822967245152e-2
      1.146059547591222e-2 1.160475202073280e-2 1.175072183166666e-2 1.189852771679376e-2
      1.204819277108434e-2 1.219974038000764e-2 1.235319422318589e-2 1.250857827809428e-2
      1.266591682380753e-2 1.282523444479349e-2 1.298655603475460e-2 1.314990680051750e-2
      1.331531226597166e-2 1.348279827605761e-2 1.365239100080514e-2 1.382411693942256e-2
      1.399800292443715e-2 1.417407612588784e-2 1.435236405557059e-2 1.453289457133712e-2
      1.471569588144783e-2 1.490079654897934e-2 1.508822549628753e-2 1.527801200952675e-2
      1.547018574322580e-2 1.566477672492158e-2 1.586181535985087e-2 1.606133243570125e-2
      1.626335912742173e-2 1.646792700209393e-2 1.667506802386448e-2 1.688481455893944e-2
      1.709719938064167e-2 1.731225567453163e-2 1.753001704359279e-2 1.775051751348212e-2
      1.797379153784664e-2 1.819987400370691e-2 1.842880023690819e-2 1.866060600764016e-2
      1.889532753602613e-2 1.913300149778246e-2 1.937366502994920e-2 1.961735573669290e-2
      1.986411169518226e-2 2.011397146153787e-2 2.036697407685653e-2 2.062315907331163e-2
      2.088256648033008e-2 2.114523683084697e-2 2.141121116763902e-2 2.168053104973746e-2
      2.195323855892181e-2 2.222937630629519e-2 2.250898743894244e-2 2.279211564667193e-2
      2.307880516884213e-2 2.336910080127415e-2 2.366304790325119e-2 2.396069240460593e-2
      2.426208081289731e-2 2.456726022067730e-2 2.487627831284925e-2 2.518918337411876e-2
      2.550602429653825e-2 2.582685058714651e-2 2.615171237570414e-2 2.648066042252655e-2
      2.681374612641529e-2 2.715102153268925e-2 2.749253934131692e-2 2.783835291515066e-2
      2.818851628826496e-2 2.854308417439929e-2 2.890211197550720e-2 2.926565579041311e-2
      2.963377242357772e-2 3.000651939397389e-2 3.038395494407409e-2 3.076613804895092e-2
      3.115312842549213e-2 3.154498654173135e-2 3.194177362629649e-2 3.234355167797677e-2
      3.275038347541019e-2 3.316233258689286e-2 3.357946338031147e-2 3.400184103320120e-2
      3.442953154292971e-2 3.486260173700917e-2 3.530111928353862e-2 3.574515270177673e-2
      3.619477137284858e-2 3.665004555058634e-2 3.711104637250640e-2 3.757784587092525e-2
      3.805051698421408e-2 3.852913356819607e-2 3.901377040768630e-2 3.950450322817679e-2
      4.000140870766930e-2 4.050456448865579e-2 4.101404919025081e-2 4.152994242047563e-2
      4.205232478869688e-2 4.258127791822258e-2 4.311688445905518e-2 4.365922810080652e-2
      4.420839358577405e-2 4.476446672218199e-2 4.532753439758933e-2 4.589768459246582e-2
      4.647500639393943e-2 4.705959000971633e-2 4.765152678217563e-2 4.825090920264252e-2
      4.885783092583946e-2 4.947238678452061e-2 5.009467280428927e-2 5.072478621860192e-2
      5.136282548396172e-2 5.200889029530175e-2 5.266308160156333e-2 5.332550162146912e-2
      5.399625385949475e-2 5.467544312204225e-2 5.536317553381554e-2 5.605955855440323e-2
      5.676470099506920e-2 5.747871303575424e-2 5.820170624229259e-2 5.893379358384346e-2
      5.967508945054353e-2 6.042570967138027e-2 6.118577153229014e-2 6.195539379448544e-2
      6.273469671301024e-2 6.352380205553121e-2 6.432283312136361e-2 6.513191476073694e-2
      6.595117339430367e-2 6.678073703289186e-2 6.762073529750790e-2 6.847129943958974e-2
      6.933256236151484e-2 7.020465863736723e-2 7.108772453396409e-2 7.198189803214847e-2
      7.288731884834880e-2 7.380412845640947e-2 7.473247010969724e-2 7.567248886348393e-2
      7.662433159761239e-2 7.758814703944656e-2 7.856408578710981e-2 7.955230033301729e-2
      8.055294508770206e-2 8.156617640394305e-2 8.259215260119497e-2 8.363103399032573e-2
      8.468298289866627e-2 8.574816369537345e-2 8.682674281711405e-2 8.791888879407033e-2
      8.902477227627291e-2 9.014456606026611e-2 9.127844511610661e-2 9.242658661470394e-2
      9.358916995550333e-2 9.476637679451677e-2 9.595839107270820e-2 9.716539904473343e-2
      9.838758930804394e-2 9.962515283235511e-2 1.008782829894851e-1 1.021471755835709e-1
      1.034320288816614e-1 1.047330436446988e-1 1.060504231588869e-1 1.073843732674546e-1
      1.087351024028208e-1 1.101028216191606e-1 1.114877446253842e-1 1.128900878185293e-1
      1.143100703175726e-1 1.157479139976688e-1 1.172038435248179e-1 1.186780863909709e-1
      1.201708729495750e-1 1.216824364515669e-1 1.232130130818194e-1 1.247628419960445e-1
      1.263321653581635e-1 1.279212283781447e-1 1.295302793503175e-1 1.311595696921705e-1
      1.328093539836338e-1 1.344798900068598e-1 1.361714387865011e-1 1.378842646304954e-1
      1.396186351713663e-1 1.413748214080387e-1 1.431530977481855e-1 1.449537420511029e-1
      1.467770356711262e-1 1.486232635015936e-1 1.504927140193592e-1 1.523856793298702e-1
      1.543024552128077e-1 1.562433411683028e-1 1.582086404637353e-1 1.601986601811179e-1
      1.622137112650808e-1 1.642541085714550e-1 1.663201709164710e-1 1.684122211265741e-1
      1.705305860888652e-1 1.726755968021801e-1 1.748475884288063e-1 1.770469003468547e-1
      1.792738762032874e-1 1.815288639676119e-1 1.838122159862552e-1 1.861242890376148e-1
      1.884654443878093e-1 1.908360478471257e-1 1.932364698271768e-1 1.956670853987814e-1
      1.981282743505670e-1 2.006204212483150e-1 2.031439154950488e-1 2.056991513918778e-1
      2.082865281996104e-1 2.109064502011360e-1 2.135593267645981e-1 2.162455724073573e-1
      2.189656068607599e-1 2.217198551357237e-1 2.245087475891448e-1 2.273327199911432e-1
      2.301922135931526e-1 2.330876751968653e-1 2.360195572240484e-1 2.389883177872329e-1
      2.419944207612972e-1 2.450383358559473e-1 2.481205386891089e-1 2.512415108612462e-1
      2.544017400306100e-1 2.576017199894379e-1 2.608419507411093e-1 2.641229385782708e-1
      2.674451961619478e-1 2.708092426016461e-1 2.742156035364666e-1 2.776648112172361e-1
      2.811574045896714e-1 2.846939293785933e-1 2.882749381731946e-1 2.919009905133853e-1
      2.955726529772214e-1 2.992904992694319e-1 3.030551103110650e-1 3.068670743302542e-1
      3.107269869541333e-1 3.146354513019035e-1 3.185930780790699e-1 3.226004856728694e-1
      3.266583002488904e-1 3.307671558489169e-1 3.349276944899962e-1 3.391405662647548e-1
      3.434064294429797e-1 3.477259505744703e-1 3.520998045931920e-1 3.565286749227347e-1
      3.610132535830967e-1 3.655542412988188e-1 3.701523476084691e-1 3.748082909755140e-1
      3.795227989005779e-1 3.842966080351145e-1 3.891304642965147e-1 3.940251229846527e-1
      3.989813488999074e-1 4.039999164626622e-1 4.090816098343080e-1 4.142272230397739e-1
      4.194375600915910e-1 4.247134351155247e-1 4.300556724777820e-1 4.354651069138184e-1
      4.409425836587715e-1 4.464889585795253e-1 4.521050983084457e-1 4.577918803787928e-1
      4.635501933618330e-1 4.693809370056870e-1 4.752850223759102e-1 4.812633719978546e-1
      4.873169200008125e-1 4.934466122639735e-1 4.996534065642265e-1 5.059382727258074e-1
      5.123021927718407e-1 5.187461610777826e-1 5.252711845267893e-1 5.318782826670517e-1
      5.385684878710947e-1 5.453428454970936e-1 5.522024140522110e-1 5.591482653579877e-1
      5.661814847178235e-1 5.733031710865506e-1 5.805144372421545e-1 5.878164099596441e-1
      5.952102301871108e-1 6.026970532240098e-1 6.102780489016707e-1 6.179544017660929e-1
      6.257273112630300e-1 6.335979919254030e-1 6.415676735630806e-1 6.496376014550308e-1
      6.578090365439064e-1 6.660832556330662e-1 6.744615515860741e-1 6.829452335287214e-1
      6.915356270535691e-1 7.002340744270842e-1 7.090419347993669e-1 7.179605844165180e-1
      7.269914168356875e-1 7.361358431428117e-1 7.453952921731071e-1 7.547712107343242e-1
      7.642650638328114e-1 7.738783349024332e-1 7.836125260363495e-1 7.934691582217313e-1
      8.034497715774121e-1 8.135559255945317e-1 8.237891993802196e-1 8.341511919043210e-1
      8.446435222492513e-1 8.552678298629750e-1 8.660257748151693e-1 8.769190380566233e-1
      8.879493216818776e-1 8.991183491951917e-1 9.104278657798396e-1 9.218796385707938e-1
      9.334754569308551e-1 9.452171327302308e-1 9.571065006296546e-1 9.691454183670519e-1
      9.813357670478089e-1 9.936794514387120e-1 1.006178400265557e0 1.018834566514530e0
      1.031649927737357e0 1.044626486360300e0 1.057766269997047e0 1.071071331765522e0
      1.084543750608697e0 1.098185631619427e0 1.111999106369372e0 1.125986333242069e0
      1.140149497770170e0 1.154490812976950e0 1.169012519722090e0 1.183716887051808e0
      1.198606212553421e0 1.213682822714327e0 1.228949073285538e0 1.244407349649769e0
      1.260060067194148e0 1.275909671687639e0 1.291958639663187e0 1.308209478804694e0
      1.324664728338839e0 1.341326959431835e0 1.358198775591197e0 1.375282813072519e0
      1.392581741291418e0 1.410098263240625e0 1.427835115912329e0 1.445795070725850e0
      1.463980933960662e0 1.482395547194898e0 1.501041787749343e0 1.519922569137014e0
      1.539040841518422e0 1.558399592162518e0 1.578001845913477e0 1.597850665663333e0
      1.617949152830549e0 1.638300447844640e0 1.658907730636852e0 1.679774221137050e0
      1.700903179776831e0 1.722297907998964e0 1.743961748773266e0 1.765898087118930e0
      1.788110350633453e0 1.810602010028205e0 1.833376579670718e0 1.856437618133843e0
      1.879788728751748e0 1.903433560182981e0 1.927375806980562e0 1.951619210169257e0
      1.976167557830144e0 2.001024685692483e0 2.026194477733078e0 2.051680866783146e0
      2.077487835142823e0 2.103619415203427e0 2.130079690077500e0 2.156872794236827e0
      2.184002914158451e0 2.211474288978795e0 2.239291211156076e0 2.267458027140970e0
      2.295979138055783e0 2.324859000382128e0 2.354102126657240e0 2.383713086179105e0
      2.413696505720384e0 2.444057070251384e0 2.474799523672089e0 2.505928669553381e0
      2.537449371887647e0 2.569366555848748e0 2.601685208561616e0 2.634410379881496e0
      2.667547183182978e0 2.701100796159003e0 2.735076461629857e0 2.769479488362395e0
      2.804315251899546e0 2.839589195400224e0 2.875306830489878e0 2.911473738121648e0
      2.948095569448439e0 2.985178046705908e0 3.022726964106561e0 3.060748188745148e0
      3.099247661515361e0 3.138231398038154e0 3.177705489601678e0 3.217676104113038e0
      3.258149487062085e0 3.299131962497236e0 3.340629934013662e0 3.382649885753850e0
      3.425198383420734e0 3.468282075303654e0 3.511907693317110e0 3.556082054052677e0
      3.600812059844102e0 3.646104699845781e0 3.691967051124875e0 3.738406279767065e0
      3.785429641996316e0 3.833044485308651e0 3.881258249620199e0 3.930078468429739e0
      3.979512769995770e0 4.029568878528495e0 4.080254615396718e0 4.131577900349932e0
      4.183546752755844e0 4.236169292853359e0 4.289453743021435e0 4.343408429063828e0
      4.398041781509987e0 4.453362336932400e0 4.509378739280388e0 4.566099741230790e0
      4.623534205555569e0 4.681691106506612e0 4.740579531218029e0 4.800208681125975e0
      4.860587873406447e0 4.921726542431091e0 4.983634241241311e0 5.046320643041017e0
      5.109795542708007e0 5.174068858324505e0 5.239150632726850e0 5.305051035074686e0
      5.371780362439971e0 5.439349041415849e0 5.507767629745890e0 5.577046817973730e0
      5.647197431113458e0 5.718230430341119e0 5.790156914707342e0 5.862988122871653e0
      5.936735434858515e0 6.011410373835446e0 6.087024607913608e0 6.163589951970894e0
      6.241118369498096e0 6.319621974468198e0 6.399113033229170e0 6.479603966420692e0
      6.561107350914813e0 6.643635921781190e0 6.727202574276940e0 6.811820365861507e0
      6.897502518237010e0 6.984262419414053e0 7.072113625803721e0 7.161069864335762e0
      7.251145034603400e0 7.342353211035278e0 7.434708645094503e0 7.528225767505554e0
      7.622919190509085e0 7.718803710145070e0 7.815894308564807e0 7.914206156371804e0
      8.013754614992312e0 8.114555239075536e0 8.216623778924042e0 8.319976182954871e0
      8.424628600191395e0 8.530597382786739e0 8.637899088578795e0 8.746550483677368e0
      8.856568545084023e0 8.967970463344663e0 9.080773645235679e0 9.194995716483755e0
      9.310654524519880e0 9.427768141268150e0 9.546354865969422e0 9.666433228040711e0
      9.788021989970410e0 9.911140150249908e0 1.003580694634227e1 1.016204185768800e1
      1.028986460874882e1 1.041929517208966e1 1.055035377149935e1 1.068306088515071e1
      1.081743724880022e1 1.095350385902810e1 1.109128197651905e1 1.123079312938420e1
      1.137205911652506e1 1.151510201103949e1 1.165994416367080e1 1.180660820630005e1
      1.195511705548224e1 1.210549391602725e1 1.225776228462544e1 1.241194595351920e1
      1.256806901422053e1 1.272615586127524e1 1.288623119607487e1 1.304832003071610e1
      1.321244769190914e1 1.337863982493500e1 1.354692239765254e1 1.371732170455616e1
      1.388986437088420e1 1.406457735677934e1 1.424148796150111e1 1.442062382769137e1
      1.460201294569372e1 1.478568365792683e1 1.497166466331320e1 1.515998502176333e1
      1.535067415871631e1 1.554376186973781e1 1.573927832517546e1 1.593725407487322e1
      1.613772005294481e1 1.634070758260709e1 1.654624838107461e1 1.675437456451524e1
      1.696511865306862e1 1.717851357592738e1 1.739459267648230e1 1.761338971753252e1
      1.783493888656080e1 1.805927480107557e1 1.828643251401991e1 1.851644751924858e1
      1.874935575707417e1 1.898519361988263e1 1.922399795781986e1 1.946580608454958e1
      1.971065578308346e1 1.995858531168512e1 2.020963340984776e1 2.046383930434750e1
      2.072124271537258e1 2.098188386272960e1 2.124580347212819e1 2.151304278154418e1
      2.178364354766341e1 2.205764805240617e1 2.233509910953372e1 2.261604007133827e1
      2.290051483541663e1 2.318856785152949e1 2.348024412854668e1 2.377558924147986e1
      2.407464933860386e1 2.437747114866724e1 2.468410198819395e1 2.499458976887655e1
      2.530898300506238e1 2.562733082133432e1 2.594968296018627e1 2.627608978979578e1
      2.660660231189411e1 2.694127216973518e1 2.728015165616526e1 2.762329372179348e1
      2.797075198326574e1 2.832258073164239e1 2.867883494088104e1 2.903957027642679e1
      2.940484310390965e1 2.977471049795211e1 3.014923025108706e1 3.052846088278776e1
      3.091246164861209e1 3.130129254946085e1 3.169501434095344e1 3.209368854292087e1
      3.249737744901819e1 3.290614413645841e1 3.332005247586796e1 3.373916714126703e1
      3.416355362017486e1 3.459327822384207e1 3.502840809761238e1 3.546901123141374e1
      3.591515647038227e1 3.636691352561932e1 3.682435298508373e1 3.728754632462186e1
      3.775656591913525e1 3.823148505388984e1 3.871237793596672e1 3.919931970585697e1
      3.969238644920297e1 4.019165520868637e1 4.069720399606669e1 4.120911180437057e1
      4.172745862023439e1 4.225232543640288e1 4.278379426438376e1 4.332194814726275e1
      4.386687117267902e1 4.441864848596378e1 4.497736630344501e1 4.554311192591821e1
      4.611597375228803e1 4.669604129338039e1 4.728340518592861e1 4.787815720673605e1
      4.848039028701582e1 4.909019852691205e1 4.970767721020299e1 5.033292281918898e1
      5.096603304976870e1 5.160710682670355e1 5.225624431907555e1 5.291354695593865e1