<UPF version="2.0.1">
  <PP_INFO>
Generated using "atomic" code by A. Dal Corso  v.6.2.2
Author: ADC
Generation date:  4May2018
Pseudopotential type: USPP
Element: Ce
Functional: PBE
    Suggested minimum cutoff for wavefunctions:  37. Ry
    Suggested minimum cutoff for charge density: 179. Ry
    The Pseudo was generated with a Scalar-Relativistic Calculation
    Local Potential by smoothing AE potential with Bessel fncs, cutoff radius:   2.0000
    Pseudopotential contains additional information for GIPAW reconstruction.
    Valence configuration:
    nl pn  l   occ       Rcut    Rcut US       E pseu
    5S  1  0  2.00      1.300      1.700    -3.025871
    6S  2  0  1.50      1.300      1.700    -0.299099
    5P  2  1  6.00      1.400      1.900    -1.749038
    6P  3  1  0.50      1.400      1.900    -0.118968
    5D  3  2  1.00      1.500      1.800    -0.258700
    Generation configuration:
    5S  1  0  2.00      1.300      1.700    -3.025908
    6S  2  0  1.50      1.300      1.700    -0.299108
    5P  2  1  6.00      1.400      1.900    -1.749064
    6P  3  1  0.50      1.400      1.900    -0.118972
    5D  3  2  1.00      1.500      1.800    -0.258719
    5D  3  2  0.00      1.500      1.800     2.000000
    Pseudization used: troullier-martins

    <PP_INPUTFILE>
 &amp;input
   title='Ce',
   zed=58.0,
   rel=1,
   config='[Xe] 4f1 5d1.0 6s1.5 6p0.5',
   iswitch=3,
   dft='PBE'
 /
 &amp;inputp
   lpaw=.false.,
   use_xsd=.FALSE.,
   pseudotype=3,
   file_pseudopw='Ce.pbe-spdn-rrkjus_psl.1.0.0.UPF',
   author='ADC',
   lloc=-1,
   rcloc=2.0,
   which_augfun='PSQ',
   rmatch_augfun_nc=.true.,
   nlcc=.true.,
   new_core_ps=.true.,
   rcore=1.1,
   tm=.true.
 /
6
5S  1  0  2.00  0.00  1.30  1.70  0.0
6S  2  0  1.50  0.00  1.30  1.70  0.0
5P  2  1  6.00  0.00  1.40  1.90  0.0
6P  3  1  0.50  0.00  1.40  1.90  0.0
5D  3  2  1.00  0.00  1.50  1.80  0.0
5D  3  2  0.00  2.00  1.50  1.80  0.0
</PP_INPUTFILE>
  </PP_INFO>
  <!--
 END OF HUMAN READABLE SECTION 
-->
  <PP_HEADER generated="Generated using &quot;atomic&quot; code by A. Dal Corso  v.6.2.2" author="ADC" date=" 4May2018" comment="" element="Ce" pseudo_type="USPP" relativistic="scalar" is_ultrasoft="true" is_paw="false" is_coulomb="false" has_so="false" has_wfc="false" has_gipaw="true" paw_as_gipaw="false" core_correction="true" functional="PBE" z_valence="1.100000000000e1" total_psenergy="-1.265363589610e2" wfc_cutoff="3.691204738285e1" rho_cutoff="1.792195301788e2" l_max="2" l_max_rho="4" l_local="-1" mesh_size="1255" number_of_wfc="5" number_of_proj="6"/>
  <PP_MESH dx="1.250000000000e-2" mesh="1255" xmin="-7.000000000000e0" rmax="1.000000000000e2" zmesh="5.800000000000e1">
    <PP_R>
      1.572210285438821e-5 1.591986256325900e-5 1.612010978304452e-5 1.632287580278024e-5
      1.652819230506930e-5 1.673609137103291e-5 1.694660548532308e-5 1.715976754119847e-5
      1.737561084566397e-5 1.759416912467508e-5 1.781547652840753e-5 1.803956763659342e-5
      1.826647746392431e-5 1.849624146552236e-5 1.872889554248031e-5 1.896447604747100e-5
      1.920301979042764e-5 1.944456404429538e-5 1.968914655085530e-5 1.993680552662169e-5
      2.018757966881335e-5 2.044150816140022e-5 2.069863068122587e-5 2.095898740420715e-5
      2.122261901161174e-5 2.148956669641465e-5 2.175987216973473e-5 2.203357766735214e-5
      2.231072595630773e-5 2.259136034158551e-5 2.287552467287917e-5 2.316326335144357e-5
      2.345462133703266e-5 2.374964415492443e-5 2.404837790303446e-5 2.435086925911865e-5
      2.465716548806680e-5 2.496731444928785e-5 2.528136460418799e-5 2.559936502374289e-5
      2.592136539616504e-5 2.624741603466779e-5 2.657756788532672e-5 2.691187253504022e-5
      2.725038221958995e-5 2.759314983180283e-5 2.794022892981563e-5 2.829167374544355e-5
      2.864753919265403e-5 2.900788087614726e-5 2.937275510004438e-5 2.974221887668521e-5
      3.011632993553655e-5 3.049514673221243e-5 3.087872845760811e-5 3.126713504714854e-5
      3.166042719015356e-5 3.205866633932070e-5 3.246191472032720e-5 3.287023534155304e-5
      3.328369200392602e-5 3.370234931089080e-5 3.412627267850338e-5 3.455552834565239e-5
      3.499018338440921e-5 3.543030571050791e-5 3.587596409395741e-5 3.632722816978679e-5
      3.678416844892600e-5 3.724685632922335e-5 3.771536410660147e-5 3.818976498635374e-5
      3.867013309458281e-5 3.915654348978288e-5 3.964907217456786e-5 4.014779610754679e-5
      4.065279321534884e-5 4.116414240479954e-5 4.168192357525005e-5 4.220621763106176e-5
      4.273710649424755e-5 4.327467311727239e-5 4.381900149601480e-5 4.437017668289137e-5
      4.492828480014651e-5 4.549341305330899e-5 4.606564974481810e-5 4.664508428782115e-5
      4.723180722014428e-5 4.782591021843945e-5 4.842748611250885e-5 4.903662889980980e-5
      4.965343376014213e-5 5.027799707052014e-5 5.091041642023184e-5 5.155079062608724e-5
      5.219921974785889e-5 5.285580510391626e-5 5.352064928705706e-5 5.419385618053760e-5
      5.487553097430460e-5 5.556578018143149e-5 5.626471165476117e-5 5.697243460375832e-5
      5.768905961157365e-5 5.841469865232262e-5 5.914946510858162e-5 5.989347378910438e-5
      6.064684094676084e-5 6.140968429670223e-5 6.218212303475397e-5 6.296427785604042e-5
      6.375627097384368e-5 6.455822613869966e-5 6.537026865773461e-5 6.619252541424419e-5
      6.702512488751950e-5 6.786819717292212e-5 6.872187400221190e-5 6.958628876413031e-5
      7.046157652524253e-5 7.134787405104203e-5 7.224531982732035e-5 7.315405408180586e-5
      7.407421880607484e-5 7.500595777773738e-5 7.594941658290354e-5 7.690474263893106e-5
      7.787208521745975e-5 7.885159546773574e-5 7.984342644022837e-5 8.084773311054503e-5
      8.186467240364617e-5 8.289440321836528e-5 8.393708645223729e-5 8.499288502663882e-5
      8.606196391224513e-5 8.714449015480714e-5 8.824063290125263e-5 8.935056342611595e-5
      9.047445515829972e-5 9.161248370817370e-5 9.276482689501417e-5 9.393166477478838e-5
      9.511317966828916e-5 9.630955618962240e-5 9.752098127505361e-5 9.874764421221698e-5
      9.998973666969208e-5 1.012474527269526e-4 1.025209889046913e-4 1.038105441955269e-4
      1.051163200950972e-4 1.064385206335432e-4 1.077773524073890e-4 1.091330246118232e-4
      1.105057490733859e-4 1.118957402830670e-4 1.133032154298209e-4 1.147283944345030e-4
      1.161714999842322e-4 1.176327575671867e-4 1.191123955078367e-4 1.206106450026209e-4
      1.221277401560711e-4 1.236639180173914e-4 1.252194186174981e-4 1.267944850065247e-4
      1.283893632917989e-4 1.300043026762979e-4 1.316395554975855e-4 1.332953772672426e-4
      1.349720267107892e-4 1.366697658081120e-4 1.383888598343993e-4 1.401295774015898e-4
      1.418921905003454e-4 1.436769745425484e-4 1.454842084043367e-4 1.473141744696784e-4
      1.491671586744937e-4 1.510434505513349e-4 1.529433432746251e-4 1.548671337064675e-4
      1.568151224430314e-4 1.587876138615196e-4 1.607849161677298e-4 1.628073414442106e-4
      1.648552056990260e-4 1.669288289151326e-4 1.690285351003763e-4 1.711546523381209e-4
      1.733075128385101e-4 1.754874529903770e-4 1.776948134138061e-4 1.799299390133535e-4
      1.821931790319423e-4 1.844848871054298e-4 1.868054213178647e-4 1.891551442574395e-4
      1.915344230731433e-4 1.939436295321322e-4 1.963831400778169e-4 1.988533358886832e-4
      2.013546029378527e-4 2.038873320533900e-4 2.064519189793728e-4 2.090487644377259e-4
      2.116782741908351e-4 2.143408591049499e-4 2.170369352143793e-4 2.197669237865012e-4
      2.225312513875841e-4 2.253303499494393e-4 2.281646568369128e-4 2.310346149162212e-4
      2.339406726241540e-4 2.368832840381404e-4 2.398629089472003e-4 2.428800129237885e-4
      2.459350673965389e-4 2.490285497239290e-4 2.521609432688658e-4 2.553327374742138e-4
      2.585444279392710e-4 2.617965164972059e-4 2.650895112934730e-4 2.684239268652084e-4
      2.718002842216291e-4 2.752191109254418e-4 2.786809411752737e-4 2.821863158891453e-4
      2.857357827889872e-4 2.893298964862234e-4 2.929692185684325e-4 2.966543176870928e-4
      3.003857696464399e-4 3.041641574934339e-4 3.079900716088626e-4 3.118641097995916e-4
      3.157868773919686e-4 3.197589873264119e-4 3.237810602531796e-4 3.278537246293492e-4
      3.319776168170161e-4 3.361533811827241e-4 3.403816701981514e-4 3.446631445420592e-4
      3.489984732035240e-4 3.533883335864699e-4 3.578334116155129e-4 3.623344018431385e-4
      3.668920075582272e-4 3.715069408959443e-4 3.761799229490133e-4 3.809116838803870e-4
      3.857029630373379e-4 3.905545090669822e-4 3.954670800332574e-4 4.004414435353720e-4
      4.054783768277433e-4 4.105786669414462e-4 4.157431108071874e-4 4.209725153798283e-4
      4.262676977644723e-4 4.316294853441405e-4 4.370587159090507e-4 4.425562377875247e-4
      4.481229099785405e-4 4.537596022859535e-4 4.594671954544049e-4 4.652465813069394e-4
      4.710986628843546e-4 4.770243545863030e-4 4.830245823141693e-4 4.891002836157431e-4
      4.952524078317143e-4 5.014819162440083e-4 5.077897822259878e-4 5.141769913945469e-4
      5.206445417641121e-4 5.271934439025879e-4 5.338247210892568e-4 5.405394094746705e-4
      5.473385582425508e-4 5.542232297737253e-4 5.611944998121281e-4 5.682534576328856e-4
      5.754012062125189e-4 5.826388624012856e-4 5.899675570976903e-4 5.973884354251901e-4
      6.049026569111212e-4 6.125113956678787e-4 6.202158405763734e-4 6.280171954717972e-4
      6.359166793317243e-4 6.439155264665796e-4 6.520149867125014e-4 6.602163256266324e-4
      6.685208246848622e-4 6.769297814820659e-4 6.854445099348504e-4 6.940663404868595e-4
      7.027966203166590e-4 7.116367135482335e-4 7.205880014641365e-4 7.296518827213159e-4
      7.388297735696582e-4 7.481231080732824e-4 7.575333383346107e-4 7.670619347212677e-4
      7.767103860958246e-4 7.864802000484381e-4 7.963729031324160e-4 8.063900411027413e-4
      8.165331791576024e-4 8.268039021829564e-4 8.372038150001718e-4 8.477345426167860e-4
      8.583977304804126e-4 8.691950447358515e-4 8.801281724854210e-4 8.911988220525762e-4
      9.024087232488341e-4 9.137596276440654e-4 9.252533088401746e-4 9.368915627482323e-4
      9.486762078690905e-4 9.606090855775239e-4 9.726920604099544e-4 9.849270203557809e-4
      9.973158771523877e-4 1.009860566583854e-3 1.022563048783426e-3 1.035425308539792e-3
      1.048449355607206e-3 1.061637225019521e-3 1.074990977408163e-3 1.088512699324110e-3
      1.102204503563924e-3 1.116068529499872e-3 1.130106943414213e-3 1.144321938837683e-3
      1.158715736892237e-3 1.173290586638107e-3 1.188048765425217e-3 1.202992579249029e-3
      1.218124363110856e-3 1.233446481382711e-3 1.248961328176749e-3 1.264671327719347e-3
      1.280578934729895e-3 1.296686634804353e-3 1.312996944803626e-3 1.329512413246840e-3
      1.346235620709537e-3 1.363169180226909e-3 1.380315737702079e-3 1.397677972319539e-3
      1.415258596963772e-3 1.433060358643148e-3 1.451086038919145e-3 1.469338454340980e-3
      1.487820456885698e-3 1.506534934403799e-3 1.525484811070471e-3 1.544673047842495e-3
      1.564102642920906e-3 1.583776632219464e-3 1.603698089839026e-3 1.623870128547874e-3
      1.644295900268097e-3 1.664978596568084e-3 1.685921449161208e-3 1.707127730410798e-3
      1.728600753841444e-3 1.750343874656743e-3 1.772360490263559e-3 1.794654040802873e-3
      1.817228009687316e-3 1.840085924145452e-3 1.863231355772919e-3 1.886667921090499e-3
      1.910399282109206e-3 1.934429146902478e-3 1.958761270185582e-3 1.983399453902283e-3
      2.008347547818914e-3 2.033609450125907e-3 2.059189108046890e-3 2.085090518455460e-3
      2.111317728499689e-3 2.137874836234505e-3 2.164765991262023e-3 2.191995395379924e-3
      2.219567303238004e-3 2.247486023002960e-3 2.275755917031556e-3 2.304381402552250e-3
      2.333366952355392e-3 2.362717095492112e-3 2.392436417981988e-3 2.422529563529624e-3
      2.453001234250236e-3 2.483856191404367e-3 2.515099256141851e-3 2.546735310255118e-3
      2.578769296941985e-3 2.611206221578046e-3 2.644051152498767e-3 2.677309221791431e-3
      2.710985626097029e-3 2.745085627422247e-3 2.779614553961671e-3 2.814577800930317e-3
      2.849980831406664e-3 2.885829177186251e-3 2.922128439646037e-3 2.958884290619635e-3
      2.996102473283537e-3 3.033788803054509e-3 3.071949168498250e-3 3.110589532249497e-3
      3.149715931943703e-3 3.189334481160419e-3 3.229451370378570e-3 3.270072867943713e-3
      3.311205321047486e-3 3.352855156719374e-3 3.395028882830932e-3 3.437733089112676e-3
      3.480974448183715e-3 3.524759716594382e-3 3.569095735881944e-3 3.613989433639617e-3
      3.659447824599019e-3 3.705478011726218e-3 3.752087187331604e-3 3.799282634193690e-3
      3.847071726697066e-3 3.895461931984670e-3 3.944460811124526e-3 3.994076020291188e-3
      4.044315311962031e-3 4.095186536128588e-3 4.146697641523142e-3 4.198856676860704e-3
      4.251671792096666e-3 4.305151239700236e-3 4.359303375943904e-3 4.414136662209140e-3
      4.469659666308475e-3 4.525881063824267e-3 4.582809639464255e-3 4.640454288434206e-3
      4.698824017827804e-3 4.757927948034021e-3 4.817775314162198e-3 4.878375467485052e-3
      4.939737876899829e-3 5.001872130407850e-3 5.064787936612637e-3 5.128495126236910e-3
      5.193003653658660e-3 5.258323598466541e-3 5.324465167034825e-3 5.391438694118170e-3
      5.459254644466438e-3 5.527923614459842e-3 5.597456333764650e-3 5.667863667009727e-3
      5.739156615484132e-3 5.811346318856111e-3 5.884444056913686e-3 5.958461251327146e-3
      6.033409467433714e-3 6.109300416044635e-3 6.186145955275030e-3 6.263958092396750e-3
      6.342748985714522e-3 6.422530946465742e-3 6.503316440744088e-3 6.585118091447397e-3
      6.667948680250024e-3 6.751821149599982e-3 6.836748604741258e-3 6.922744315761497e-3
      7.009821719665505e-3 7.097994422474807e-3 7.187276201353593e-3 7.277681006761476e-3
      7.369222964633221e-3 7.461916378585992e-3 7.555775732154302e-3 7.650815691053101e-3
      7.747051105469339e-3 7.844497012382304e-3 7.943168637913207e-3 8.043081399704288e-3
      8.144250909327841e-3 8.246692974725590e-3 8.350423602678667e-3 8.455459001308730e-3
      8.561815582610514e-3 8.669509965016221e-3 8.778558975992226e-3 8.888979654668351e-3
      9.000789254500280e-3 9.114005245965478e-3 9.228645319292937e-3 9.344727387227366e-3
      9.462269587828045e-3 9.581290287302959e-3 9.701808082878552e-3 9.823841805705570e-3
      9.947410523801494e-3 1.007253354502993e-2 1.019923042011750e-2 1.032752094570872e-2
      1.045742516745920e-2 1.058896338316790e-2 1.072215614594862e-2 1.085702426744156e-2
      1.099358882106507e-2 1.113187114530848e-2 1.127189284706633e-2 1.141367580501438e-2
      1.155724217302827e-2 1.170261438364508e-2 1.184981515156849e-2 1.199886747721797e-2
      1.214979465032265e-2 1.230262025356039e-2 1.245736816624263e-2 1.261406256804555e-2
      1.277272794278824e-2 1.293338908225831e-2 1.309607109008567e-2 1.326079938566501e-2
      1.342759970812767e-2 1.359649812036339e-2 1.376752101309271e-2 1.394069510899057e-2
      1.411604746686177e-2 1.429360548586897e-2 1.447339690981392e-2 1.465544983147238e-2
      1.483979269698376e-2 1.502645431029584e-2 1.521546383766544e-2 1.540685081221579e-2
      1.560064513855103e-2 1.579687709742894e-2 1.599557735049231e-2 1.619677694505993e-2
      1.640050731897783e-2 1.660680030553142e-2 1.681568813841954e-2 1.702720345679107e-2
      1.724137931034483e-2 1.745824916449370e-2 1.767784690559360e-2 1.790020684623837e-2
      1.812536373062112e-2 1.835335273996309e-2 1.858420949801090e-2 1.881797007660262e-2
      1.905467100130428e-2 1.929434925711692e-2 1.953704229425563e-2 1.978278803400124e-2
      2.003162487462558e-2 2.028359169739122e-2 2.053872787262688e-2 2.079707326587898e-2
      2.105866824414086e-2 2.132355368216009e-2 2.159177096882526e-2 2.186336201363311e-2
      2.213836925323692e-2 2.241683565807743e-2 2.269880473909694e-2 2.298432055453799e-2
      2.327342771682765e-2 2.356617139954821e-2 2.386259734449572e-2 2.416275186882713e-2
      2.446668187229755e-2 2.477443484458837e-2 2.508605887272761e-2 2.540160264860372e-2
      2.572111547657363e-2 2.604464728116678e-2 2.637224861488586e-2 2.670397066610574e-2
      2.703986526707189e-2 2.737998490199903e-2 2.772438271527213e-2 2.807311251975019e-2
      2.842622880517462e-2 2.878378674668350e-2 2.914584221343262e-2 2.951245177732527e-2
      2.988367272185166e-2 3.025956305103963e-2 3.064018149851791e-2 3.102558753669326e-2
      3.141584138604328e-2 3.181100402452588e-2 3.221113719710728e-2 3.261630342540983e-2
      3.302656601748098e-2 3.344198907768543e-2 3.386263751672153e-2 3.428857706176365e-2
      3.471987426673237e-2 3.515659652269338e-2 3.559881206838772e-2 3.604659000089408e-2
      3.650000028642543e-2 3.695911377126138e-2 3.742400219281799e-2 3.789473819085695e-2
      3.837139531883567e-2 3.885404805540015e-2 3.934277181602248e-2 3.983764296478456e-2
      4.033873882631021e-2 4.084613769784726e-2 4.135991886150169e-2 4.188016259662566e-2
      4.240695019236121e-2 4.294036396034193e-2 4.348048724755431e-2 4.402740444936081e-2
      4.458120102268700e-2 4.514196349937417e-2 4.570977949970015e-2 4.628473774607020e-2
      4.686692807688009e-2 4.745644146055357e-2 4.805337000975607e-2 4.865780699578792e-2
      4.926984686315804e-2 4.988958524434071e-2 5.051711897471904e-2 5.115254610771498e-2
      5.179596593011090e-2 5.244747897756321e-2 5.310718705031087e-2 5.377519322908269e-2
      5.445160189120291e-2 5.513651872690128e-2 5.583005075582694e-2 5.653230634377024e-2
      5.724339521959571e-2 5.796342849238673e-2 5.869251866880720e-2 5.943077967068064e-2
      6.017832685279036e-2 6.093527702090471e-2 6.170174845002725e-2 6.247786090287829e-2
      6.326373564860770e-2 6.405949548174318e-2 6.486526474137784e-2 6.568116933059764e-2
      6.650733673615471e-2 6.734389604838715e-2 6.819097798138927e-2 6.904871489343671e-2
      6.991724080766682e-2 7.079669143302088e-2 7.168720418544844e-2 7.258891820937862e-2
      7.350197439946244e-2 7.442651542258699e-2 7.536268574016822e-2 7.631063163072305e-2
      7.727050121272525e-2 7.824244446775013e-2 7.922661326390845e-2 8.022316137957706e-2
      8.123224452742662e-2 8.225402037875176e-2 8.328864858810835e-2 8.433629081825874e-2
      8.539711076543298e-2 8.647127418490626e-2 8.755894891689795e-2 8.866030491279812e-2
      8.977551426172157e-2 9.090475121739811e-2 9.204819222539964e-2 9.320601595070977e-2
      9.437840330564146e-2 9.556553747810387e-2 9.676760396022681e-2 9.798479057734394e-2
      9.921728751734019e-2 1.004652873603703e-1 1.017289851089486e-1 1.030085782184194e-1
      1.043042666278095e-1 1.056162527910687e-1 1.069447417087047e-1 1.082899409598132e-1
      1.096520607345143e-1 1.110313138667942e-1 1.124279158677606e-1 1.138420849593178e-1
      1.152740421082633e-1 1.167240110608151e-1 1.181922183775721e-1 1.196788934689144e-1
      1.211842686308500e-1 1.227085790813103e-1 1.242520629969046e-1 1.258149615501351e-1
      1.273975189470802e-1 1.289999824655532e-1 1.306226024937388e-1 1.322656325693177e-1
      1.339293294190824e-1 1.356139529990499e-1 1.373197665350824e-1 1.390470365640151e-1
      1.407960329753042e-1 1.425670290531978e-1 1.443603015194356e-1 1.461761305764893e-1
      1.480147999513431e-1 1.498765969398276e-1 1.517618124515106e-1 1.536707410551506e-1
      1.556036810247264e-1 1.575609343860401e-1 1.595428069639119e-1 1.615496084299644e-1
      1.635816523510091e-1 1.656392562380433e-1 1.677227415958602e-1 1.698324339732859e-1
      1.719686630140470e-1 1.741317625082768e-1 1.763220704446726e-1 1.785399290633051e-1
      1.807856849090961e-1 1.830596888859657e-1 1.853622963116613e-1 1.876938669732784e-1
      1.900547651834760e-1 1.924453598374028e-1 1.948660244703377e-1 1.973171373160538e-1
      1.997990813659207e-1 2.023122444287451e-1 2.048570191913689e-1 2.074338032800265e-1
      2.100429993224737e-1 2.126850150109011e-1 2.153602631656347e-1 2.180691617996418e-1
      2.208121341838456e-1 2.235896089132609e-1 2.264020199739660e-1 2.292498068109102e-1
      2.321334143965812e-1 2.350532933005304e-1 2.380098997597775e-1 2.410036957500973e-1
      2.440351490582036e-1 2.471047333548440e-1 2.502129282688090e-1 2.533602194618783e-1
      2.565470987047043e-1 2.597740639536516e-1 2.630416194286065e-1 2.663502756917591e-1
      2.697005497273823e-1 2.730929650226109e-1 2.765280516492358e-1 2.800063463465320e-1
      2.835283926051217e-1 2.870947407518990e-1 2.907059480360181e-1 2.943625787159631e-1
      2.980652041477184e-1 3.018144028740395e-1 3.056107607148558e-1 3.094548708588044e-1
      3.133473339559150e-1 3.172887582114667e-1 3.212797594810175e-1 3.253209613666359e-1
      3.294129953143391e-1 3.335565007127555e-1 3.377521249930348e-1 3.420005237300057e-1
      3.463023607446150e-1 3.506583082076488e-1 3.550690467447593e-1 3.595352655428179e-1
      3.640576624575970e-1 3.686369441228163e-1 3.732738260605530e-1 3.779690327930427e-1
      3.827232979558908e-1 3.875373644127005e-1 3.924119843711505e-1 3.973479195005276e-1
      4.023459410507366e-1 4.074068299728147e-1 4.125313770409509e-1 4.177203829760513e-1
      4.229746585708512e-1 4.282950248166007e-1 4.336823130313517e-1 4.391373649898465e-1
      4.446610330550528e-1 4.502541803113448e-1 4.559176806993587e-1 4.616524191525545e-1
      4.674592917354811e-1 4.733392057837948e-1 4.792930800460292e-1 4.853218448271491e-1
      4.914264421339193e-1 4.976078258220868e-1 5.038669617454300e-1 5.102048279066721e-1
      5.166224146102936e-1 5.231207246172752e-1 5.297007733017748e-1 5.363635888097873e-1
      5.431102122197925e-1 5.499416977054224e-1 5.568591127001849e-1 5.638635380642444e-1
      5.709560682533157e-1 5.781378114896718e-1 5.854098899353027e-1 5.927734398672627e-1
      6.002296118552078e-1 6.077795709411818e-1 6.154244968216536e-1 6.231655840318436e-1
      6.310040421323800e-1 6.389410958982861e-1 6.469779855103620e-1 6.551159667489621e-1
      6.633563111902092e-1 6.717003064046900e-1 6.801492561586301e-1 6.887044806176196e-1
      6.973673165528868e-1 7.061391175501690e-1 7.150212542212209e-1 7.240151144179656e-1
      7.331221034493583e-1 7.423436443009647e-1 7.516811778573019e-1 7.611361631269879e-1
      7.707100774707044e-1 7.804044168320478e-1 7.902206959712675e-1 8.001604487019478e-1
      8.102252281306784e-1 8.204166068997189e-1 8.307361774327383e-1 8.411855521836287e-1
      8.517663638884516e-1 8.624802658205656e-1 8.733289320489426e-1 8.843140576997534e-1
      8.954373592212326e-1 9.067005746518698e-1 9.181054638919946e-1 9.296538089787511e-1
      9.413474143645558e-1 9.531881071990430e-1 9.651777376145544e-1 9.773181790152393e-1
      9.896113283697627e-1 1.002059106507724e0 1.014663458419784e0 1.027426353561569e0
      1.040349786161415e0 1.053435775531955e0 1.066686366385653e0 1.080103629154292e0
      1.093689660312472e0 1.107446582705206e0 1.121376545879604e0 1.135481726420754e0
      1.149764328291814e0 1.164226583178382e0 1.178870750837211e0 1.193699119449287e0
      1.208714005977377e0 1.223917756528051e0 1.239312746718260e0 1.254901382046547e0
      1.270686098268894e0 1.286669361779326e0 1.302853669995288e0 1.319241551747860e0
      1.335835567676913e0 1.352638310631192e0 1.369652406073471e0 1.386880512490781e0
      1.404325321809796e0 1.421989559817467e0 1.439875986586918e0 1.457987396908724e0
      1.476326620727598e0 1.494896523584567e0 1.513700007064740e0 1.532740009250661e0
      1.552019505181411e0 1.571541507317456e0 1.591309066011343e0 1.611325269984341e0
      1.631593246809037e0 1.652116163398050e0 1.672897226498853e0 1.693939683194829e0
      1.715246821412654e0 1.736821970436019e0 1.758668501425857e0 1.780789827947084e0
      1.803189406501970e0 1.825870737070242e0 1.848837363655941e0 1.872092874841200e0
      1.895640904346959e0 1.919485131600730e0 1.943629282311540e0 1.968077129052052e0
      1.992832491848063e0 2.017899238775378e0 2.043281286564195e0 2.068982601211130e0
      2.095007198598879e0 2.121359145123733e0 2.148042558330956e0 2.175061607558141e0
      2.202420514586708e0 2.230123554301534e0 2.258175055358941e0 2.286579400863046e0
      2.315341029050613e0 2.344464433984571e0 2.373954166256185e0 2.403814833696123e0
      2.434051102094430e0 2.464667695929552e0 2.495669399106571e0 2.527061055704675e0
      2.558847570734079e0 2.591033910902431e0 2.623625105390856e0 2.656626246639809e0
      2.690042491144743e0 2.723879060261853e0 2.758141241023908e0 2.792834386966351e0
      2.827963918963827e0 2.863535326077174e0 2.899554166411128e0 2.936026067982779e0
      2.972956729600937e0 3.010351921756628e0 3.048217487524698e0 3.086559343476839e0
      3.125383480606058e0 3.164695965262758e0 3.204502940102661e0 3.244810625046560e0
      3.285625318252241e0 3.326953397098563e0 3.368801319181913e0 3.411175623325271e0
      3.454082930599859e0 3.497529945359739e0 3.541523456289368e0 3.586070337464321e0
      3.631177549425427e0 3.676852140266311e0 3.723101246734726e0 3.769932095347658e0
      3.817352003520469e0 3.865368380710298e0 3.913988729573760e0 3.963220647139290e0
      4.013071825994177e0 4.063550055486528e0 4.114663222942411e0 4.166419314898220e0
      4.218826418348628e0 4.271892722010178e0 4.325626517600769e0 4.380036201135298e0
      4.435130274237499e0 4.490917345468393e0 4.547406131671367e0 4.604605459334175e0
      4.662524265968156e0 4.721171601504665e0 4.780556629709206e0 4.840688629613267e0
      4.901576996964154e0 4.963231245693160e0 5.025661009402071e0 5.088876042868486e0
      5.152886223570009e0 5.217701553227584e0 5.283332159368355e0 5.349788296908041e0
      5.417080349753348e0 5.485218832424449e0 5.554214391697871e0 5.624077808270143e0
      5.694819998442222e0 5.766452015825259e0 5.838985053067717e0 5.912430443604213e0
      5.986799663426466e0 6.062104332876358e0 6.138356218461710e0 6.215567234694788e0
      6.293749445953948e0 6.372915068368780e0 6.453076471728830e0 6.534246181416475e0
      6.616436880364005e0 6.699661411035324e0 6.783932777432697e0 6.869264147128550e0
      6.955668853323020e0 7.043160396927250e0 7.131752448672910e0 7.221458851248351e0
      7.312293621461458e0 7.404270952429895e0 7.497405215798769e0 7.591710963986189e0
      7.687202932457200e0 7.783896042026129e0 7.881805401188084e0 7.980946308479647e0
      8.081334254869258e0 8.182984926177809e0 8.285914205529473e0 8.390138175833572e0
      8.495673122297530e0 8.602535534971413e0 8.710742111324647e0 8.820309758854901e0
      8.931255597730035e0 9.043596963463111e0 9.157351409621054e0 9.272536710567541e0
      9.389170864240162e0 9.507272094962737e0 9.626858856292863e0 9.747949833905260e0
      9.870563948511585e0 9.994720358816663e0 1.012043846451222e1 1.024773790930807e1
      1.037663858400142e1 1.050716062958497e1 1.063932444039386e1 1.077315066729243e1
      1.090866022090093e1 1.104587427486277e1 1.118481426915309e1 1.132550191342862e1
      1.146795919042003e1 1.161220835936672e1 1.175827195949475e1 1.190617281353887e1
      1.205593403130838e1 1.220757901329827e1 1.236113145434552e1 1.251661534733141e1
      1.267405498693059e1 1.283347497340702e1 1.299490021645795e1 1.315835593910606e1
      1.332386768164052e1 1.349146130560787e1 1.366116299785279e1 1.383299927460998e1
      1.400699698564731e1 1.418318331846108e1 1.436158580252429e1 1.454223231358799e1
      1.472515107803710e1 1.491037067730072e1 1.509792005231803e1 1.528782850806050e1
      1.548012571811066e1 1.567484172929883e1 1.587200696639795e1 1.607165223687739e1
      1.627380873571689e1 1.647850805028065e1 1.668578216525304e1 1.689566346763628e1
      1.710818475181080e1 1.732337922465969e1 1.754128051075709e1 1.776192265762231e1
      1.798534014103972e1 1.821156787044561e1 1.844064119438300e1 1.867259590602476e1
      1.890746824876653e1 1.914529492188974e1 1.938611308629587e1 1.962996037031312e1
      1.987687487557566e1 2.012689518297733e1 2.038006035869986e1 2.063640996031696e1
      2.089598404297549e1 2.115882316565391e1 2.142496839749993e1 2.169446132424752e1
      2.196734405471472e1 2.224365922738342e1 2.252345001706143e1 2.280676014162892e1
      2.309363386886930e1 2.338411602338601e1 2.367825199360676e1 2.397608773887526e1
      2.427766979663268e1 2.458304528968918e1 2.489226193358673e1 2.520536804405516e1
      2.552241254456115e1 2.584344497395297e1 2.616851549420092e1 2.649767489823504e1
      2.683097461788200e1 2.716846673190100e1 2.751020397412153e1 2.785623974168303e1
      2.820662810337805e1 2.856142380810113e1 2.892068229340282e1 2.928445969415245e1
      2.965281285130904e1 3.002579932080271e1 3.040347738252827e1 3.078590604945115e1
      3.117314507682868e1 3.156525497154677e1 3.196229700157411e1 3.236433320553581e1
      3.277142640240656e1 3.318364020132668e1 3.360103901154095e1 3.402368805246256e1
      3.445165336386415e1 3.488500181619623e1 3.532380112103617e1 3.576811984166816e1
      3.621802740379616e1 3.667359410639222e1 3.713489113268035e1 3.760199056125947e1
      3.807496537736572e1 3.855388948427621e1 3.903883771485719e1 3.952988584325619e1
      4.002711059674236e1 4.053058966769513e1 4.104040172574355e1 4.155662643005903e1
      4.207934444180174e1 4.260863743672457e1 4.314458811793492e1 4.368728022881696e1
      4.423679856611730e1 4.479322899319398e1 4.535665845343337e1 4.592717498383504e1
      4.650486772876742e1 4.708982695389738e1 4.768214406029379e1 4.828191159870972e1
      4.888922328404334e1 4.950417400998089e1 5.012685986382462e1 5.075737814150587e1
      5.139582736278842e1 5.204230728666213e1 5.269691892693017e1 5.335976456799336e1
      5.403094778083148e1 5.471057343918718e1 5.539874773595237e1 5.609557819976083e1
      5.680117371179045e1 5.751564452277533e1 5.823910227023337e1 5.897165999590960e1
      5.971343216343888e1 6.046453467623172e1 6.122508489558367e1 6.199520165901395e1
      6.277500529883377e1 6.356461766094817e1 6.436416212389543e1 6.517376361812433e1
      6.599354864551564e1 6.682364529914782e1 6.766418328331165e1 6.851529393377745e1
      6.937711023831574e1 7.024976685747760e1 7.113340014563531e1 7.202814817228769e1