<UPF version="2.0.1">
  <PP_INFO>
Generated using "atomic" code by A. Dal Corso  v.6.2.2
Author: ADC
Generation date:  4May2018
Pseudopotential type: USPP
Element: Dy
Functional: PBE
    Suggested minimum cutoff for wavefunctions:  36. Ry
    Suggested minimum cutoff for charge density: 265. Ry
    The Pseudo was generated with a Scalar-Relativistic Calculation
    Local Potential by smoothing AE potential with Bessel fncs, cutoff radius:   2.0000
    Pseudopotential contains additional information for GIPAW reconstruction.
    Valence configuration:
    nl pn  l   occ       Rcut    Rcut US       E pseu
    5S  1  0  2.00      1.200      1.700    -3.933665
    6S  2  0  1.50      1.200      1.700    -0.342880
    5P  2  1  6.00      1.200      1.700    -2.145978
    6P  3  1  0.50      1.200      1.700    -0.121032
    5D  3  2  1.00      1.200      2.000    -0.209487
    Generation configuration:
    5S  1  0  2.00      1.200      1.700    -3.933709
    6S  2  0  1.50      1.200      1.700    -0.342888
    5P  2  1  6.00      1.200      1.700    -2.146011
    6P  3  1  0.50      1.200      1.700    -0.121036
    5D  3  2  1.00      1.200      2.000    -0.209503
    5D  3  2  0.00      1.200      2.000     2.000000
    Pseudization used: troullier-martins

    <PP_INPUTFILE>
 &amp;input
   title='Dy',
   zed=66.0,
   rel=1,
   config='[Xe] 4f9.0 5d1.0 6s1.5 6p0.5',
   iswitch=3,
   dft='PBE'
 /
 &amp;inputp
   lpaw=.false.,
   use_xsd=.FALSE.,
   pseudotype=3,
   file_pseudopw='Dy.pbe-spdn-rrkjus_psl.1.0.0.UPF',
   author='ADC',
   lloc=-1,
   rcloc=2.0,
   which_augfun='PSQ',
   rmatch_augfun_nc=.true.,
   nlcc=.true.,
   new_core_ps=.true.,
   rcore=1.1,
   tm=.true.
 /
6
5S  1  0  2.00  0.00  1.20  1.70  0.0
6S  2  0  1.50  0.00  1.20  1.70  0.0
5P  2  1  6.00  0.00  1.20  1.70  0.0
6P  3  1  0.50  0.00  1.20  1.70  0.0
5D  3  2  1.00  0.00  1.20  2.00  0.0
5D  3  2  0.00  2.00  1.20  2.00  0.0
</PP_INPUTFILE>
  </PP_INFO>
  <!--
 END OF HUMAN READABLE SECTION 
-->
  <PP_HEADER generated="Generated using &quot;atomic&quot; code by A. Dal Corso  v.6.2.2" author="ADC" date=" 4May2018" comment="" element="Dy" pseudo_type="USPP" relativistic="scalar" is_ultrasoft="true" is_paw="false" is_coulomb="false" has_so="false" has_wfc="false" has_gipaw="true" paw_as_gipaw="false" core_correction="true" functional="PBE" z_valence="1.100000000000e1" total_psenergy="-1.245083225017e2" wfc_cutoff="3.565489591301e1" rho_cutoff="2.651748869663e2" l_max="2" l_max_rho="4" l_local="-1" mesh_size="1265" number_of_wfc="5" number_of_proj="6"/>
  <PP_MESH dx="1.250000000000e-2" mesh="1265" xmin="-7.000000000000e0" rmax="1.000000000000e2" zmesh="6.600000000000e1">
    <PP_R>
      1.381639341749267e-5 1.399018225256095e-5 1.416615708206943e-5 1.434434540244324e-5
      1.452477505597000e-5 1.470747423515013e-5 1.489247148710210e-5 1.507979571802290e-5
      1.526947619770470e-5 1.546154256410841e-5 1.565602482799450e-5 1.585295337761240e-5
      1.605235898344864e-5 1.625427280303480e-5 1.645872638581603e-5 1.666575167808058e-5
      1.687538102795156e-5 1.708764719044140e-5 1.730258333256981e-5 1.752022303854633e-5
      1.774060031501780e-5 1.796374959638201e-5 1.818970575016819e-5 1.841850408248508e-5
      1.865018034353759e-5 1.888477073321287e-5 1.912231190673658e-5 1.936284098040037e-5
      1.960639553736133e-5 1.985301363351454e-5 2.010273380343927e-5 2.035559506642011e-5
      2.061163693254384e-5 2.087089940887298e-5 2.113342300569696e-5 2.139924874286184e-5
      2.166841815617992e-5 2.194097330391963e-5 2.221695677337732e-5 2.249641168753162e-5
      2.277938171178140e-5 2.306591106076866e-5 2.335604450528713e-5 2.364982737927776e-5
      2.394730558691238e-5 2.424852560976612e-5 2.455353451408040e-5 2.486237995811706e-5
      2.517511019960506e-5 2.549177410328093e-5 2.581242114852385e-5 2.613710143708700e-5
      2.646586570092605e-5 2.679876531012607e-5 2.713585228092833e-5 2.747717928385781e-5
      2.782279965195315e-5 2.817276738910001e-5 2.852713717846935e-5 2.888596439106177e-5
      2.924930509435923e-5 2.961721606108587e-5 2.998975477807874e-5 3.036697945527028e-5
      3.074894903478385e-5 3.113572320014332e-5 3.152736238559894e-5 3.192392778557021e-5
      3.232548136420770e-5 3.273208586507508e-5 3.314380482095280e-5 3.356070256376541e-5
      3.398284423463338e-5 3.441029579405162e-5 3.484312403219600e-5 3.528139657935929e-5
      3.572518191651868e-5 3.617454938603596e-5 3.662956920249247e-5 3.709031246366035e-5
      3.755685116161149e-5 3.802925819396664e-5 3.850760737528574e-5 3.899197344860151e-5
      3.948243209709845e-5 3.997905995593820e-5 4.048193462423410e-5 4.099113467717616e-5
      4.150673967830861e-5 4.202883019196194e-5 4.255748779584110e-5 4.309279509377223e-5
      4.363483572860974e-5 4.418369439530557e-5 4.473945685414312e-5 4.530220994413727e-5
      4.587204159660326e-5 4.644904084889610e-5 4.703329785832286e-5 4.762490391623000e-5
      4.822395146226769e-5 4.883053409883375e-5 4.944474660569921e-5 5.006668495481791e-5
      5.069644632532231e-5 5.133412911870776e-5 5.197983297420810e-5 5.263365878436445e-5
      5.329570871078983e-5 5.396608620013227e-5 5.464489600023834e-5 5.533224417652036e-5
      5.602823812852929e-5 5.673298660673607e-5 5.744659972952436e-5 5.816918900039641e-5
      5.890086732539591e-5 5.964174903074975e-5 6.039194988073167e-5 6.115158709575088e-5
      6.192077937066767e-5 6.269964689333994e-5 6.348831136340273e-5 6.428689601128394e-5
      6.509552561745969e-5 6.591432653195104e-5 6.674342669406675e-5 6.758295565239396e-5
      6.843304458504040e-5 6.929382632013141e-5 7.016543535656433e-5 7.104800788502441e-5
      7.194168180926481e-5 7.284659676765433e-5 7.376289415499642e-5 7.469071714462200e-5
      7.563021071076086e-5 7.658152165119416e-5 7.754479861019169e-5 7.852019210173826e-5
      7.950785453305126e-5 8.050794022839508e-5 8.152060545319426e-5 8.254600843845038e-5
      8.358430940546624e-5 8.463567059088030e-5 8.570025627201680e-5 8.677823279255431e-5
      8.786976858851730e-5 8.897503421459472e-5 9.009420237078931e-5 9.122744792940241e-5
      9.237494796235815e-5 9.353688176887122e-5 9.471343090346306e-5 9.590477920432949e-5
      9.711111282206641e-5 9.833262024875587e-5 9.956949234741836e-5 1.008219223818359e-4
      1.020901060467495e-4 1.033742414984368e-4 1.046745293856747e-4 1.059911728810911e-4
      1.073243777129110e-4 1.086743521971015e-4 1.100413072699226e-4 1.114254565208854e-4
      1.128270162261263e-4 1.142462053822012e-4 1.156832457403024e-4 1.171383618409101e-4
      1.186117810488754e-4 1.201037335889469e-4 1.216144525817448e-4 1.231441740801850e-4
      1.246931371063641e-4 1.262615836889062e-4 1.278497589007808e-4 1.294579108975962e-4
      1.310862909563733e-4 1.327351535148095e-4 1.344047562110342e-4 1.360953599238654e-4
      1.378072288135731e-4 1.395406303631536e-4 1.412958354201262e-4 1.430731182388517e-4
      1.448727565233864e-4 1.466950314708741e-4 1.485402278154822e-4 1.504086338728941e-4
      1.523005415853573e-4 1.542162465673010e-4 1.561560481515265e-4 1.581202494359774e-4
      1.601091573311009e-4 1.621230826078019e-4 1.641623399460023e-4 1.662272479838105e-4
      1.683181293673077e-4 1.704353108009646e-4 1.725791230986875e-4 1.747499012355095e-4
      1.769479843999311e-4 1.791737160469185e-4 1.814274439515700e-4 1.837095202634560e-4
      1.860203015616430e-4 1.883601489104105e-4 1.907294279156666e-4 1.931285087820768e-4
      1.955577663709072e-4 1.980175802585982e-4 2.005083347960749e-4 2.030304191688004e-4
      2.055842274575899e-4 2.081701587001840e-4 2.107886169536003e-4 2.134400113572687e-4
      2.161247561969584e-4 2.188432709695133e-4 2.215959804483973e-4 2.243833147500666e-4
      2.272057094011775e-4 2.300636054066355e-4 2.329574493185066e-4 2.358876933057892e-4
      2.388547952250680e-4 2.418592186920549e-4 2.449014331540284e-4 2.479819139631883e-4
      2.511011424509281e-4 2.542596060030449e-4 2.574577981358952e-4 2.606962185735058e-4
      2.639753733256593e-4 2.672957747669571e-4 2.706579417168793e-4 2.740623995208533e-4
      2.775096801323360e-4 2.810003221959376e-4 2.845348711315820e-4 2.881138792197311e-4
      2.917379056876807e-4 2.954075167969394e-4 2.991232859317088e-4 3.028857936884762e-4
      3.066956279667332e-4 3.105533840608372e-4 3.144596647530264e-4 3.184150804076066e-4
      3.224202490663208e-4 3.264757965449208e-4 3.305823565309511e-4 3.347405706827644e-4
      3.389510887297819e-4 3.432145685740148e-4 3.475316763928626e-4 3.519030867432057e-4
      3.563294826668048e-4 3.608115557970284e-4 3.653500064669223e-4 3.699455438186368e-4
      3.745988859142333e-4 3.793107598478809e-4 3.840819018594689e-4 3.889130574496429e-4
      3.938049814962930e-4 3.987584383725047e-4 4.037742020659922e-4 4.088530563000377e-4
      4.139957946559480e-4 4.192032206970541e-4 4.244761480942700e-4 4.298154007532287e-4
      4.352218129430217e-4 4.406962294265526e-4 4.462395055925348e-4 4.518525075891472e-4
      4.575361124593712e-4 4.632912082780317e-4 4.691186942905590e-4 4.750194810534983e-4
      4.809944905767871e-4 4.870446564678192e-4 4.931709240773246e-4 4.993742506470814e-4
      5.056556054594862e-4 5.120159699890086e-4 5.184563380555460e-4 5.249777159797125e-4
      5.315811227400763e-4 5.382675901323783e-4 5.450381629307524e-4 5.518938990509731e-4
      5.588358697157576e-4 5.658651596221458e-4 5.729828671109861e-4 5.801901043385556e-4
      5.874879974503335e-4 5.948776867569670e-4 6.023603269124442e-4 6.099370870945129e-4
      6.176091511873670e-4 6.253777179666296e-4 6.332440012866654e-4 6.412092302702471e-4
      6.492746495006088e-4 6.574415192159149e-4 6.657111155061730e-4 6.740847305126292e-4
      6.825636726296640e-4 6.911492667092334e-4 6.998428542678806e-4 7.086457936963482e-4
      7.175594604718323e-4 7.265852473729009e-4 7.357245646971209e-4 7.449788404814179e-4
      7.543495207252113e-4 7.638380696163543e-4 7.734459697599155e-4 7.831747224098395e-4
      7.930258477035210e-4 8.030008848993305e-4 8.131013926171232e-4 8.233289490817802e-4
      8.336851523698069e-4 8.441716206590364e-4 8.547899924814750e-4 8.655419269793224e-4
      8.764291041642194e-4 8.874532251797509e-4 8.986160125672535e-4 9.099192105349687e-4
      9.213645852305753e-4 9.329539250171550e-4 9.446890407526281e-4 9.565717660727026e-4
      9.686039576773874e-4 9.807874956210993e-4 9.931242836064296e-4 1.005616249281601e-3
      1.018265344541663e-3 1.031073545833488e-3 1.044042854464584e-3 1.057175296915813e-3
      1.070472925158025e-3 1.083937816972685e-3 1.097572076276537e-3 1.111377833450335e-3
      1.125357245671726e-3 1.139512497252310e-3 1.153845799978944e-3 1.168359393459344e-3
      1.183055545472018e-3 1.197936552320616e-3 1.213004739192736e-3 1.228262460523231e-3
      1.243712100362103e-3 1.259356072747009e-3 1.275196822080460e-3 1.291236823511770e-3
      1.307478583323795e-3 1.323924639324551e-3 1.340577561243747e-3 1.357439951134314e-3
      1.374514443778978e-3 1.391803707101953e-3 1.409310442585810e-3 1.427037385693586e-3
      1.444987306296207e-3 1.463163009105286e-3 1.481567334111364e-3 1.500203157027671e-3
      1.519073389739451e-3 1.538180980758956e-3 1.557528915686158e-3 1.577120217675252e-3
      1.596957947907035e-3 1.617045206067215e-3 1.637385130830747e-3 1.657980900352257e-3
      1.678835732762636e-3 1.699952886671875e-3 1.721335661678239e-3 1.742987398883824e-3
      1.764911481416621e-3 1.787111334959130e-3 1.809590428283631e-3 1.832352273794192e-3
      1.855400428075484e-3 1.878738492448504e-3 1.902370113533293e-3 1.926298983818721e-3
      1.950528842239458e-3 1.975063474760177e-3 1.999906714967126e-3 2.025062444667129e-3
      2.050534594494132e-3 2.076327144523371e-3 2.102444124893262e-3 2.128889616435124e-3
      2.155667751310813e-3 2.182782713658383e-3 2.210238740245869e-3 2.238040121133286e-3
      2.266191200342957e-3 2.294696376538283e-3 2.323560103711037e-3 2.352786891877318e-3
      2.382381307782237e-3 2.412347975613490e-3 2.442691577723892e-3 2.473416855363006e-3
      2.504528609417978e-3 2.536031701163675e-3 2.567931053022275e-3 2.600231649332407e-3
      2.632938537127957e-3 2.666056826926690e-3 2.699591693528765e-3 2.733548376825317e-3
      2.767932182617193e-3 2.802748483444004e-3 2.838002719423592e-3 2.873700399102050e-3
      2.909847100314458e-3 2.946448471056419e-3 2.983510230366577e-3 3.021038169220230e-3
      3.059038151434174e-3 3.097516114582942e-3 3.136478070926557e-3 3.175930108349967e-3
      3.215878391314289e-3 3.256329161820010e-3 3.297288740382318e-3 3.338763527018696e-3
      3.380760002248937e-3 3.423284728107741e-3 3.466344349170037e-3 3.509945593589226e-3
      3.554095274148452e-3 3.598800289325124e-3 3.644067624368821e-3 3.689904352392739e-3
      3.736317635478887e-3 3.783314725797177e-3 3.830902966738583e-3 3.879089794062577e-3
      3.927882737058963e-3 3.977289419724355e-3 4.027317561953437e-3 4.077974980745211e-3
      4.129269591424435e-3 4.181209408878381e-3 4.233802548809204e-3 4.287057229002016e-3
      4.340981770608941e-3 4.395584599449323e-3 4.450874247326256e-3 4.506859353359708e-3
      4.563548665336398e-3 4.620951041076657e-3 4.679075449818483e-3 4.737930973618998e-3
      4.797526808773537e-3 4.857872267252588e-3 4.918976778156814e-3 4.980849889190367e-3
      5.043501268152721e-3 5.106940704449309e-3 5.171178110621120e-3 5.236223523893553e-3
      5.302087107744780e-3 5.368779153493771e-3 5.436310081908360e-3 5.504690444833509e-3
      5.573930926840037e-3 5.644042346894137e-3 5.715035660047834e-3 5.786921959150745e-3
      5.859712476583355e-3 5.933418586012106e-3 6.008051804166560e-3 6.083623792638892e-3
      6.160146359706051e-3 6.237631462174829e-3 6.316091207250127e-3 6.395537854426749e-3
      6.475983817404952e-3 6.557441666030115e-3 6.639924128256811e-3 6.723444092137574e-3
      6.808014607836692e-3 6.893648889669297e-3 6.980360318166152e-3 7.068162442164374e-3
      7.157068980924466e-3 7.247093826274003e-3 7.338251044778222e-3 7.430554879937976e-3
      7.524019754415301e-3 7.618660272286983e-3 7.714491221326503e-3 7.811527575314608e-3
      7.909784496379036e-3 8.009277337363601e-3 8.110021644227125e-3 8.212033158472533e-3
      8.315327819606464e-3 8.419921767629873e-3 8.525831345559940e-3 8.633073101983681e-3
      8.741663793643738e-3 8.851620388056606e-3 8.962960066163870e-3 9.075700225016753e-3
      9.189858480494445e-3 9.305452670056635e-3 9.422500855530611e-3 9.541021325933491e-3
      9.661032600329905e-3 9.782553430725637e-3 9.905602804997688e-3 1.003019994986112e-2
      1.015636433387333e-2 1.028411567047598e-2 1.041347392107534e-2 1.054445929816124e-2
      1.067709226846536e-2 1.081139355615913e-2 1.094738414609201e-2 1.108508528707033e-2
      1.122451849517755e-2 1.136570555713609e-2 1.150866853371165e-2 1.165342976316017e-2
      1.180001186471826e-2 1.194843774213753e-2 1.209873058726329e-2 1.225091388365838e-2
      1.240501141027246e-2 1.256104724515758e-2 1.271904576923042e-2 1.287903167008179e-2
      1.304102994583421e-2 1.320506590904786e-2 1.337116519067569e-2 1.353935374406842e-2
      1.370965784902969e-2 1.388210411592239e-2 1.405671948982657e-2 1.423353125474963e-2
      1.441256703788961e-2 1.459385481395185e-2 1.477742290952020e-2 1.496330000748306e-2
      1.515151515151515e-2 1.534209775061568e-2 1.553507758370347e-2 1.573048480427008e-2
      1.592834994509129e-2 1.612870392299787e-2 1.633157804370654e-2 1.653700400671140e-2
      1.674501391023709e-2 1.695564025625426e-2 1.716891595555797e-2 1.738487433291019e-2
      1.760354913224672e-2 1.782497452194987e-2 1.804918510018726e-2 1.827621590031789e-2
      1.850610239636621e-2 1.873888050856493e-2 1.897458660896765e-2 1.921325752713213e-2
      1.945493055587487e-2 1.969964345709835e-2 1.994743446769125e-2 2.019834230550308e-2
      2.045240617539400e-2 2.070966577536055e-2 2.097016130273866e-2 2.123393346048445e-2
      2.150102346353421e-2 2.177147304524433e-2 2.204532446391214e-2 2.232262050937903e-2
      2.260340450971623e-2 2.288772033799505e-2 2.317561241914212e-2 2.346712573688080e-2
      2.376230584076014e-2 2.406119885327188e-2 2.436385147705733e-2 2.467031100220471e-2
      2.498062531363830e-2 2.529484289860066e-2 2.561301285422867e-2 2.593518489522523e-2
      2.626140936162722e-2 2.659173722667119e-2 2.692622010475816e-2 2.726491025951832e-2
      2.760786061197742e-2 2.795512474882577e-2 2.830675693079126e-2 2.866281210111773e-2
      2.902334589414996e-2 2.938841464402659e-2 2.975807539348255e-2 3.013238590276200e-2
      3.051140465864359e-2 3.089519088357902e-2 3.128380454494678e-2 3.167730636442208e-2
      3.207575782746477e-2 3.247922119292667e-2 3.288775950277945e-2 3.330143659196519e-2
      3.372031709837074e-2 3.414446647292740e-2 3.457395098983794e-2 3.500883775693189e-2
      3.544919472615139e-2 3.589509070416880e-2 3.634659536313784e-2 3.680377925158013e-2
      3.726671380540834e-2 3.773547135908837e-2 3.821012515694166e-2 3.869074936458980e-2
      3.917741908054312e-2 3.967021034793488e-2 4.016920016640316e-2 4.067446650412229e-2
      4.118608830998554e-2 4.170414552594101e-2 4.222871909948261e-2 4.275989099629848e-2
      4.329774421307827e-2 4.384236279048123e-2 4.439383182626826e-2 4.495223748859801e-2
      4.551766702949140e-2 4.609020879846463e-2 4.666995225633380e-2 4.725698798919387e-2
      4.785140772257225e-2 4.845330433576173e-2 4.906277187633277e-2 4.967990557482839e-2
      5.030480185964471e-2 5.093755837209743e-2 5.157827398167906e-2 5.222704880150722e-2
      5.288398420396730e-2 5.354918283655262e-2 5.422274863790273e-2 5.490478685404455e-2
      5.559540405483707e-2 5.629470815062279e-2 5.700280840908961e-2 5.771981547234338e-2
      5.844584137419656e-2 5.918099955767355e-2 5.992540489273601e-2 6.067917369423226e-2
      6.144242374007084e-2 6.221527428962441e-2 6.299784610236379e-2 6.379026145672667e-2
      6.459264416922458e-2 6.540511961378858e-2 6.622781474135996e-2 6.706085809972631e-2
      6.790437985360703e-2 6.875851180499254e-2 6.962338741373774e-2 7.049914181841620e-2
      7.138591185743552e-2 7.228383609041822e-2 7.319305481985278e-2 7.411371011301525e-2
      7.504594582416837e-2 7.598990761703883e-2 7.694574298757699e-2 7.791360128700441e-2
      7.889363374514925e-2 7.988599349407711e-2 8.089083559201788e-2 8.190831704759344e-2
      8.293859684435159e-2 8.398183596560644e-2 8.503819741959326e-2 8.610784626493860e-2
      8.719094963645047e-2 8.828767677123455e-2 8.939819903513666e-2 9.052268994952005e-2
      9.166132521837804e-2 9.281428275578765e-2 9.398174271371019e-2 9.516388751013888e-2
      9.636090185760347e-2 9.757297279203126e-2 9.880028970197142e-2 1.000430443581884e-1
      1.013014309436253e-1 1.025756460837466e-1 1.038658888772603e-1 1.051723609272278e-1
      1.064952663725652e-1 1.078348119199394e-1 1.091912068760676e-1 1.105646631804218e-1
      1.119553954383432e-1 1.133636209545771e-1 1.147895597672250e-1 1.162334346821277e-1
      1.176954713076784e-1 1.191758980900741e-1 1.206749463490118e-1 1.221928503138314e-1
      1.237298471601159e-1 1.252861770467496e-1 1.268620831534434e-1 1.284578117187331e-1
      1.300736120784530e-1 1.317097367046970e-1 1.333664412452669e-1 1.350439845636172e-1
      1.367426287793050e-1 1.384626393089443e-1 1.402042849076801e-1 1.419678377111808e-1
      1.437535732781595e-1 1.455617706334320e-1 1.473927123115135e-1 1.492466844007664e-1
      1.511239765881019e-1 1.530248822042432e-1 1.549496982695608e-1 1.568987255404802e-1
      1.588722685564783e-1 1.608706356876668e-1 1.628941391829751e-1 1.649430952189417e-1
      1.670178239491152e-1 1.691186495540813e-1 1.712459002921150e-1 1.733999085504716e-1
      1.755810108973243e-1 1.777895481343517e-1 1.800258653499909e-1 1.822903119733567e-1
      1.845832418288405e-1 1.869050131913980e-1 1.892559888425275e-1 1.916365361269579e-1
      1.940470270100461e-1 1.964878381358960e-1 1.989593508862125e-1 2.014619514398907e-1
      2.039960308333592e-1 2.065619850216783e-1 2.091602149404105e-1 2.117911265682674e-1
      2.144551309905425e-1 2.171526444633477e-1 2.198840884786504e-1 2.226498898301355e-1
      2.254504806798917e-1 2.282862986259362e-1 2.311577867705936e-1 2.340653937897277e-1
      2.370095740028511e-1 2.399907874441126e-1 2.430094999341769e-1 2.460661831530130e-1
      2.491613147135919e-1 2.522953782365173e-1 2.554688634255917e-1 2.586822661443312e-1
      2.619360884934494e-1 2.652308388893074e-1 2.685670321433582e-1 2.719451895425857e-1
      2.753658389309556e-1 2.788295147918950e-1 2.823367583318033e-1 2.858881175646195e-1
      2.894841473974496e-1 2.931254097172700e-1 2.968124734787276e-1 3.005459147930353e-1
      3.043263170179950e-1 3.081542708491459e-1 3.120303744120612e-1 3.159552333558096e-1
      3.199294609475852e-1 3.239536781685355e-1 3.280285138107890e-1 3.321546045757042e-1
      3.363325951733586e-1 3.405631384232822e-1 3.448468953564656e-1 3.491845353186455e-1
      3.535767360748897e-1 3.580241839155038e-1 3.625275737632599e-1 3.670876092819845e-1
      3.717050029865057e-1 3.763804763539825e-1 3.811147599366424e-1 3.859085934759257e-1
      3.907627260180767e-1 3.956779160311817e-1 4.006549315236788e-1 4.056945501643660e-1
      4.107975594039076e-1 4.159647565978803e-1 4.211969491313590e-1 4.264949545450705e-1
      4.318596006631411e-1 4.372917257224399e-1 4.427921785035597e-1 4.483618184634391e-1
      4.540015158696519e-1 4.597121519363934e-1 4.654946189621657e-1 4.713498204692070e-1
      4.772786713446662e-1 4.832820979835530e-1 4.893610384334958e-1 4.955164425413057e-1
      5.017492721013986e-1 5.080605010060752e-1 5.144511153976903e-1 5.209221138227460e-1
      5.274745073879098e-1 5.341093199180083e-1 5.408275881159986e-1 5.476303617249535e-1
      5.545187036920915e-1 5.614936903348575e-1 5.685564115091060e-1 5.757079707793910e-1
      5.829494855913961e-1 5.902820874465458e-1 5.977069220787961e-1 6.052251496336657e-1
      6.128379448495066e-1 6.205464972410576e-1 6.283520112853153e-1 6.362557066097274e-1
      6.442588181827694e-1 6.523625965069084e-1 6.605683078139926e-1 6.688772342631105e-1
      6.772906741409220e-1 6.858099420645268e-1 6.944363691868714e-1 7.031713034047421e-1
      7.120161095693841e-1 7.209721696997531e-1 7.300408831984670e-1 7.392236670704616e-1
      7.485219561443968e-1 7.579372032968608e-1 7.674708796793738e-1 7.771244749482682e-1
      7.868994974974468e-1 7.967974746940675e-1 8.068199531172073e-1 8.169684987995085e-1
      8.272446974718823e-1 8.376501548112801e-1 8.481864966915781e-1 8.588553694376344e-1
      8.696584400825188e-1 8.805973966279998e-1 8.916739483082948e-1 9.028898258571362e-1
      9.142467817782130e-1 9.257465906189905e-1 9.373910492479983e-1 9.491819771355896e-1
      9.611212166382325e-1 9.732106332863932e-1 9.854521160760154e-1 9.978475777636923e-1
      1.010398955165533e0 1.023108209459790e0 1.035977326493306e0 1.049008317091798e0
      1.062203217374059e0 1.075564089070105e0 1.089093019843319e0 1.102792123616663e0
      1.116663540902967e0 1.130709439139408e0 1.144932013026162e0 1.159333484869332e0
      1.173916104928197e0 1.188682151766805e0 1.203633932610020e0 1.218773783704020e0
      1.234104070681336e0 1.249627188930502e0 1.265345563970322e0 1.281261651828879e0
      1.297377939427283e0 1.313696944968256e0 1.330221218329620e0 1.346953341462702e0
      1.363895928795785e0 1.381051627642613e0 1.398423118616029e0 1.416013116046845e0
      1.433824368407942e0 1.451859658743741e0 1.470121805105052e0 1.488613660989395e0
      1.507338115786878e0 1.526298095231653e0 1.545496561859086e0 1.564936515468649e0
      1.584620993592640e0 1.604553071970819e0 1.624735865030978e0 1.645172526375600e0
      1.665866249274600e0 1.686820267164278e0 1.708037854152566e0 1.729522325530592e0
      1.751277038290722e0 1.773305391651089e0 1.795610827586717e0 1.818196831367357e0
      1.841066932102045e0 1.864224703290554e0 1.887673763381749e0 1.911417776338972e0
      1.935460452212561e0 1.959805547719530e0 1.984456866830585e0 2.009418261364495e0
      2.034693631589932e0 2.060286926834926e0 2.086202146103920e0 2.112443338702654e0
      2.139014604870863e0 2.165920096422939e0 2.193164017396684e0 2.220750624710170e0
      2.248684228826918e0 2.276969194429409e0 2.305609941101055e0 2.334610944016802e0
      2.363976734642350e0 2.393711901442234e0 2.423821090596768e0 2.454309006728005e0
      2.485180413634879e0 2.516440135037517e0 2.548093055330992e0 2.580144120348502e0
      2.612598338134156e0 2.645460779725522e0 2.678736579945947e0 2.712430938206919e0
      2.746549119320476e0 2.781096454321818e0 2.816078341302338e0 2.851500246253038e0
      2.887367703918636e0 2.923686318662373e0 2.960461765341681e0 2.997699790194936e0
      3.035406211739270e0 3.073586921679771e0 3.112247885830051e0 3.151395145044404e0
      3.191034816161739e0 3.231173092961304e0 3.271816247130517e0 3.312970629244912e0
      3.354642669760412e0 3.396838880018141e0 3.439565853261790e0 3.482830265667861e0
      3.526638877388823e0 3.570998533609373e0 3.615916165616059e0 3.661398791880254e0
      3.707453519154855e0 3.754087543584702e0 3.801308151830979e0 3.849122722209807e0
      3.897538725845075e0 3.946563727835860e0 3.996205388438474e0 4.046471464263366e0
      4.097369809487168e0 4.148908377079857e0 4.201095220047485e0 4.253938492690447e0
      4.307446451877590e0 4.361627458336414e0 4.416489977959396e0 4.472042583126852e0
      4.528293954046371e0 4.585252880109088e0 4.642928261263100e0 4.701329109404036e0
      4.760464549783245e0 4.820343822433607e0 4.880976283613281e0 4.942371407267702e0
      5.004538786509832e0 5.067488135119167e0 5.131229289059508e0 5.195772208015824e0
      5.261126976950531e0 5.327303807679225e0 5.394313040466351e0 5.462165145640874e0
      5.530870725232257e0 5.600440514627110e0 5.670885384246548e0 5.742216341244781e0
      5.814444531228974e0 5.887581240000739e0 5.961637895319642e0 6.036626068688726e0
      6.112557477162653e0 6.189443985178493e0 6.267297606409527e0 6.346130505642490e0
      6.425955000678251e0 6.506783564256574e0 6.588628826004978e0 6.671503574412105e0
      6.755420758826023e0 6.840393491477507e0 6.926435049528923e0 7.013558877148782e0
      7.101778587612379e0 7.191107965428984e0 7.281560968495596e0 7.373151730277988e0
      7.465894562019042e0 7.559803954974878e0 7.654894582679234e0 7.751181303236124e0
      7.848679161641545e0 7.947403392134249e0 8.047369420576077e0 8.148592866862385e0
      8.251089547362568e0 8.354875477391497e0 8.459966873711910e0 8.566380157068259e0
      8.674131954752603e0 8.783239103202522e0 8.893718650631952e0 9.005587859694973e0
      9.118864210183064e0 9.233565401756486e0 9.349709356709754e0 9.467314222772137e0
      9.586398375943244e0 9.706980423364255e0 9.829079206225439e0 9.952713802709996e0
      1.007790353097518e1 1.020466795217075e1 1.033302687349539e1 1.046300035129173e1
      1.059460869418009e1 1.072787246623181e1 1.086281249018243e1 1.099944985068517e1
      1.113780589760567e1 1.127790224935768e1 1.141976079628123e1 1.156340370406290e1
      1.170885341719924e1 1.185613266250389e1 1.200526445265852e1 1.215627208980877e1
      1.230917916920521e1 1.246400958289004e1 1.262078752343044e1 1.277953748769854e1
      1.294028428069927e1 1.310305301944609e1 1.326786913688554e1 1.343475838587135e1
      1.360374684318816e1 1.377486091362625e1 1.394812733410729e1 1.412357317786195e1
      1.430122585866030e1 1.448111313509512e1 1.466326311491934e1 1.484770425943794e1
      1.503446538795494e1 1.522357568227670e1 1.541506469127138e1 1.560896233548627e1
      1.580529891182279e1 1.600410509827038e1 1.620541195870021e1 1.640925094771873e1
      1.661565391558271e1 1.682465311317584e1 1.703628119704789e1 1.725057123451759e1
      1.746755670883922e1 1.768727152443462e1 1.790975001219079e1 1.813502693482399e1
      1.836313749231179e1 1.859411732739283e1 1.882800253113630e1 1.906482964858116e1
      1.930463568444627e1 1.954745810891271e1 1.979333486347823e1 2.004230436688602e1
      2.029440552112756e1 2.054967771752104e1 2.080816084286655e1 2.106989528567826e1
      2.133492194249539e1 2.160328222427231e1 2.187501806284895e1 2.215017191750302e1
      2.242878678158404e1 2.271090618923139e1 2.299657422217656e1 2.328583551663079e1
      2.357873527025994e1 2.387531924924633e1 2.417563379544013e1 2.447972583360023e1
      2.478764287872617e1 2.509943304348281e1 2.541514504571763e1 2.573482821607337e1
      2.605853250569583e1 2.638630849403874e1 2.671820739676727e1 2.705428107376011e1
      2.739458203721308e1 2.773916345984413e1 2.808807918320150e1 2.844138372607693e1
      2.879913229302395e1 2.916138078298405e1 2.952818579802083e1 2.989960465216407e1
      3.027569538036547e1 3.065651674756638e1 3.104212825788027e1 3.143259016389020e1
      3.182796347606330e1 3.222830997228407e1 3.263369220750697e1 3.304417352353105e1
      3.345981805889714e1 3.388069075890940e1 3.430685738578359e1 3.473838452892210e1
      3.517533961531904e1 3.561779092009572e1 3.606580757716858e1 3.651945959005188e1
      3.697881784279547e1 3.744395411106099e1 3.791494107333676e1 3.839185232229370e1
      3.887476237628490e1 3.936374669098865e1 3.985888167119903e1 4.036024468276412e1
      4.086791406467440e1 4.138196914130376e1 4.190249023480364e1 4.242955867765398e1
      4.296325682537141e1 4.350366806937714e1 4.405087685002770e1 4.460496866980819e1
      4.516603010669285e1 4.573414882767278e1 4.630941360245378e1 4.689191431732749e1
      4.748174198921554e1 4.807898877989176e1 4.868374801038239e1 4.929611417554740e1
      4.991618295884615e1 5.054405124728741e1 5.117981714656872e1 5.182357999640541e1
      5.247544038605235e1 5.313550017002182e1 5.380386248399777e1 5.448063176095165e1
      5.516591374745998e1 5.585981552022719e1 5.656244550281720e1 5.727391348259411e1
      5.799433062787737e1 5.872380950531172e1 5.946246409745569e1 6.021040982059230e1
      6.096776354276232e1 6.173464360202576e1 6.251116982495224e1 6.329746354534372e1