<UPF version="2.0.1">
  <PP_INFO>
Generated using "atomic" code by A. Dal Corso  v.6.2.2
Author: ADC
Generation date:  4May2018
Pseudopotential type: USPP
Element: Er
Functional: PBE
    Suggested minimum cutoff for wavefunctions:  37. Ry
    Suggested minimum cutoff for charge density: 265. Ry
    The Pseudo was generated with a Scalar-Relativistic Calculation
    Local Potential by smoothing AE potential with Bessel fncs, cutoff radius:   2.2000
    Pseudopotential contains additional information for GIPAW reconstruction.
    Valence configuration:
    nl pn  l   occ       Rcut    Rcut US       E pseu
    5S  1  0  2.00      1.200      1.600    -4.169867
    6S  2  0  1.50      1.200      1.600    -0.355048
    5P  2  1  6.00      1.200      1.700    -2.239420
    6P  3  1  0.50      1.200      1.700    -0.121805
    5D  3  2  1.00      1.200      2.000    -0.193723
    Generation configuration:
    5S  1  0  2.00      1.200      1.600    -4.169916
    6S  2  0  1.50      1.200      1.600    -0.355056
    5P  2  1  6.00      1.200      1.700    -2.239458
    6P  3  1  0.50      1.200      1.700    -0.121809
    5D  3  2  1.00      1.200      2.000    -0.193739
    5D  3  2  0.00      1.200      2.000     2.000000
    Pseudization used: troullier-martins

    <PP_INPUTFILE>
 &amp;input
   title='Er',
   zed=68.0,
   rel=1,
   config='[Xe] 4f11 5d1.0 6s1.5 6p0.5',
   iswitch=3,
   dft='PBE'
 /
 &amp;inputp
   lpaw=.false.,
   use_xsd=.FALSE.,
   pseudotype=3,
   file_pseudopw='Er.pbe-spdn-rrkjus_psl.1.0.0.UPF',
   author='ADC',
   lloc=-1,
   rcloc=2.2,
   which_augfun='PSQ',
   rmatch_augfun_nc=.true.,
   nlcc=.true.,
   new_core_ps=.true.,
   rcore=1.1,
   tm=.true.
 /
6
5S  1  0  2.00  0.00  1.20  1.60  0.0
6S  2  0  1.50  0.00  1.20  1.60  0.0
5P  2  1  6.00  0.00  1.20  1.70  0.0
6P  3  1  0.50  0.00  1.20  1.70  0.0
5D  3  2  1.00  0.00  1.20  2.00  0.0
5D  3  2  0.00  2.00  1.20  2.00  0.0
</PP_INPUTFILE>
  </PP_INFO>
  <!--
 END OF HUMAN READABLE SECTION 
-->
  <PP_HEADER generated="Generated using &quot;atomic&quot; code by A. Dal Corso  v.6.2.2" author="ADC" date=" 4May2018" comment="" element="Er" pseudo_type="USPP" relativistic="scalar" is_ultrasoft="true" is_paw="false" is_coulomb="false" has_so="false" has_wfc="false" has_gipaw="true" paw_as_gipaw="false" core_correction="true" functional="PBE" z_valence="1.100000000000e1" total_psenergy="-1.227103386719e2" wfc_cutoff="3.689366252319e1" rho_cutoff="2.653174210267e2" l_max="2" l_max_rho="4" l_local="-1" mesh_size="1267" number_of_wfc="5" number_of_proj="6"/>
  <PP_MESH dx="1.250000000000e-2" mesh="1267" xmin="-7.000000000000e0" rmax="1.000000000000e2" zmesh="6.800000000000e1">
    <PP_R>
      1.341002890521348e-5 1.357870630395621e-5 1.374950540318503e-5 1.392245289060668e-5
      1.409757578961794e-5 1.427490146352807e-5 1.445445761983439e-5 1.463627231455163e-5
      1.482037395659574e-5 1.500679131222286e-5 1.519555350952407e-5 1.538669004297675e-5
      1.558023077805309e-5 1.577620595588671e-5 1.597464619799791e-5 1.617558251107821e-5
      1.637904629183534e-5 1.658506933189900e-5 1.679368382278834e-5 1.700492236094203e-5
      1.721881795281139e-5 1.743540402001784e-5 1.765471440457501e-5 1.787678337417669e-5
      1.810164562755119e-5 1.832933629988308e-5 1.855989096830315e-5 1.879334565744742e-5
      1.902973684508600e-5 1.926910146782294e-5 1.951147692686752e-5 1.975690109387834e-5
      2.000541231688080e-5 2.025704942625908e-5 2.051185174082351e-5 2.076985907395414e-5
      2.103111173982168e-5 2.129565055968670e-5 2.156351686827799e-5 2.183475252025127e-5
      2.210939989672901e-5 2.238750191192253e-5 2.266910201983750e-5 2.295424422106371e-5
      2.324297306965025e-5 2.353533368006713e-5 2.383137173425451e-5 2.413113348876068e-5
      2.443466578196962e-5 2.474201604141972e-5 2.505323229121432e-5 2.536836315952562e-5
      2.568745788619293e-5 2.601056633041648e-5 2.633773897854808e-5 2.666902695197964e-5
      2.700448201513099e-5 2.734415658353825e-5 2.768810373204379e-5 2.803637720308936e-5
      2.838903141511337e-5 2.874612147105393e-5 2.910770316695877e-5 2.947383300070351e-5
      2.984456818081961e-5 3.021996663543321e-5 3.060008702131662e-5 3.098498873305345e-5
      3.137473191231924e-5 3.176937745727875e-5 3.216898703210125e-5 3.257362307659584e-5
      3.298334881596769e-5 3.339822827069716e-5 3.381832626654317e-5 3.424370844467226e-5
      3.467444127191519e-5 3.511059205115255e-5 3.555222893183093e-5 3.599942092061151e-5
      3.645223789215234e-5 3.691075060002644e-5 3.737503068777732e-5 3.784515070011324e-5
      3.832118409424262e-5 3.880320525135179e-5 3.929128948822720e-5 3.978551306902393e-5
      4.028595321718189e-5 4.079268812749247e-5 4.130579697831635e-5 4.182535994395540e-5
      4.235145820718004e-5 4.288417397191423e-5 4.342359047608008e-5 4.396979200460382e-5
      4.452286390258553e-5 4.508289258863446e-5 4.564996556837220e-5 4.622417144810560e-5
      4.680559994867157e-5 4.739434191945627e-5 4.799048935259042e-5 4.859413539732326e-5
      4.920537437457753e-5 4.982430179168693e-5 5.045101435731962e-5 5.108560999658902e-5
      5.172818786635482e-5 5.237884837071661e-5 5.303769317670191e-5 5.370482523015210e-5
      5.438034877180784e-5 5.506436935359677e-5 5.575699385512658e-5 5.645833050038474e-5
      5.716848887464897e-5 5.788757994161005e-5 5.861571606071015e-5 5.935301100469939e-5
      6.009957997741275e-5 6.085553963177114e-5 6.162100808800854e-5 6.239610495212853e-5
      6.318095133459323e-5 6.397566986924659e-5 6.478038473247655e-5 6.559522166261767e-5
      6.642030797959802e-5 6.725577260483342e-5 6.810174608137126e-5 6.895836059428841e-5
      6.982574999134527e-5 7.070404980389979e-5 7.159339726808476e-5 7.249393134625076e-5
      7.340579274867965e-5 7.432912395557079e-5 7.526406923930368e-5 7.621077468698124e-5
      7.716938822325564e-5 7.814005963344228e-5 7.912294058692383e-5 8.011818466084890e-5
      8.112594736412902e-5 8.214638616173676e-5 8.317966049931041e-5 8.422593182806743e-5
      8.528536363003150e-5 8.635812144357724e-5 8.744437288929552e-5 8.854428769618469e-5
      8.965803772817114e-5 9.078579701096325e-5 9.192774175924354e-5 9.308405040420215e-5
      9.425490362141741e-5 9.544048435908659e-5 9.664097786661195e-5 9.785657172354668e-5
      9.908745586890394e-5 1.003338226308357e-4 1.015958667566843e-4 1.028737854434119e-4
      1.041677783684136e-4 1.054780477207162e-4 1.068047982325719e-4 1.081482372114476e-4
      1.095085745724167e-4 1.108860228709599e-4 1.122807973361759e-4 1.136931159044128e-4
      1.151231992533202e-4 1.165712708363308e-4 1.180375569175759e-4 1.195222866072384e-4
      1.210256918973534e-4 1.225480076980560e-4 1.240894718742872e-4 1.256503252829610e-4
      1.272308118105976e-4 1.288311784114328e-4 1.304516751460038e-4 1.320925552202223e-4
      1.337540750249385e-4 1.354364941760021e-4 1.371400755548283e-4 1.388650853494737e-4
      1.406117930962280e-4 1.423804717217308e-4 1.441713975856151e-4 1.459848505236913e-4
      1.478211138916704e-4 1.496804746094392e-4 1.515632232058934e-4 1.534696538643310e-4
      1.554000644684214e-4 1.573547566487489e-4 1.593340358299434e-4 1.613382112784043e-4
      1.633675961506222e-4 1.654225075421127e-4 1.675032665369614e-4 1.696101982579945e-4
      1.717436319175802e-4 1.739039008690679e-4 1.760913426588768e-4 1.783062990792367e-4
      1.805491162215947e-4 1.828201445306925e-4 1.851197388593235e-4 1.874482585237805e-4
      1.898060673599982e-4 1.921935337804041e-4 1.946110308314844e-4 1.970589362520710e-4
      1.995376325323667e-4 2.020475069737079e-4 2.045889517490826e-4 2.071623639644079e-4
      2.097681457205773e-4 2.124067041762923e-4 2.150784516116798e-4 2.177838054927117e-4
      2.205231885364370e-4 2.232970287770286e-4 2.261057596326681e-4 2.289498199732660e-4
      2.318296541890366e-4 2.347457122599356e-4 2.376984498259687e-4 2.406883282583886e-4
      2.437158147317832e-4 2.467813822970729e-4 2.498855099554277e-4 2.530286827331086e-4
      2.562113917572575e-4 2.594341343326347e-4 2.626974140193240e-4 2.660017407114163e-4
      2.693476307166791e-4 2.727356068372336e-4 2.761661984512414e-4 2.796399415956214e-4
      2.831573790498077e-4 2.867190604205587e-4 2.903255422278350e-4 2.939773879917563e-4
      2.976751683206529e-4 3.014194610002244e-4 3.052108510838197e-4 3.090499309838534e-4
      3.129373005643702e-4 3.168735672347760e-4 3.208593460447467e-4 3.248952597803301e-4
      3.289819390612588e-4 3.331200224394848e-4 3.373101564989549e-4 3.415529959566407e-4
      3.458492037648399e-4 3.501994512147629e-4 3.546044180414246e-4 3.590647925298534e-4
      3.635812716226382e-4 3.681545610288257e-4 3.727853753341904e-4 3.774744381128887e-4
      3.822224820405198e-4 3.870302490086075e-4 3.918984902405219e-4 3.968279664088602e-4
      4.018194477543025e-4 4.068737142059643e-4 4.119915555032621e-4 4.171737713193103e-4
      4.224211713858740e-4 4.277345756198894e-4 4.331148142515779e-4 4.385627279541723e-4
      4.440791679752721e-4 4.496649962698544e-4 4.553210856349543e-4 4.610483198460424e-4
      4.668475937951170e-4 4.727198136305304e-4 4.786658968985799e-4 4.846867726868730e-4
      4.907833817695012e-4 4.969566767540376e-4 5.032076222303830e-4 5.095371949214856e-4
      5.159463838359564e-4 5.224361904226025e-4 5.290076287269068e-4 5.356617255494740e-4
      5.423995206064708e-4 5.492220666920826e-4 5.561304298430159e-4 5.631256895050686e-4
      5.702089387017942e-4 5.773812842052914e-4 5.846438467091369e-4 5.919977610034977e-4
      5.994441761524445e-4 6.069842556734933e-4 6.146191777194105e-4 6.223501352622987e-4
      6.301783362800029e-4 6.381050039448583e-4 6.461313768148149e-4 6.542587090269636e-4
      6.624882704934975e-4 6.708213471001383e-4 6.792592409070606e-4 6.878032703523380e-4
      6.964547704579549e-4 7.052150930384039e-4 7.140856069119113e-4 7.230676981143174e-4
      7.321627701156462e-4 7.413722440394026e-4 7.506975588846237e-4 7.601401717507268e-4
      7.697015580651821e-4 7.793832118140559e-4 7.891866457754432e-4 7.991133917558456e-4
      8.091650008295183e-4 8.193430435808294e-4 8.296491103496670e-4 8.400848114799309e-4
      8.506517775711542e-4 8.613516597332877e-4 8.721861298446873e-4 8.831568808133522e-4
      8.942656268414407e-4 9.055141036931211e-4 9.169040689657862e-4 9.284373023646818e-4
      9.401156059809937e-4 9.519408045734201e-4 9.639147458532992e-4 9.760393007733182e-4
      9.883163638198495e-4 1.000747853308974e-3 1.013335711686214e-3 1.026081905830054e-3
      1.038988427359259e-3 1.052057292944077e-3 1.065290544621345e-3 1.078690250113561e-3
      1.092258503151969e-3 1.105997423803712e-3 1.119909158803093e-3 1.133995881887011e-3
      1.148259794134606e-3 1.162703124311186e-3 1.177328129216479e-3 1.192137094037253e-3
      1.207132332704394e-3 1.222316188254450e-3 1.237691033195741e-3 1.253259269879072e-3
      1.269023330873096e-3 1.284985679344417e-3 1.301148809442461e-3 1.317515246689187e-3
      1.334087548373714e-3 1.350868303951895e-3 1.367860135450934e-3 1.385065697879069e-3
      1.402487679640436e-3 1.420128802955130e-3 1.437991824284559e-3 1.456079534762152e-3
      1.474394760629467e-3 1.492940363677810e-3 1.511719241695389e-3 1.530734328920098e-3
      1.549988596498005e-3 1.569485052947591e-3 1.589226744629843e-3 1.609216756224250e-3
      1.629458211210794e-3 1.649954272357996e-3 1.670708142217114e-3 1.691723063622536e-3
      1.713002320198486e-3 1.734549236872097e-3 1.756367180392936e-3 1.778459559859069e-3
      1.800829827249735e-3 1.823481477964725e-3 1.846418051370549e-3 1.869643131353464e-3
      1.893160346879474e-3 1.916973372561348e-3 1.941085929232798e-3 1.965501784529861e-3
      1.990224753479599e-3 2.015258699096213e-3 2.040607532984637e-3 2.066275215951738e-3
      2.092265758625201e-3 2.118583222080195e-3 2.145231718473932e-3 2.172215411688189e-3
      2.199538517979928e-3 2.227205306640098e-3 2.255220100660713e-3 2.283587277410338e-3
      2.312311269318054e-3 2.341396564566034e-3 2.370847707790837e-3 2.400669300793506e-3
      2.430866003258626e-3 2.461442533482391e-3 2.492403669109855e-3 2.523754247881454e-3
      2.555499168388899e-3 2.587643390840611e-3 2.620191937836743e-3 2.653149895153983e-3
      2.686522412540218e-3 2.720314704519180e-3 2.754532051205251e-3 2.789179799128461e-3
      2.824263362069915e-3 2.859788221907701e-3 2.895759929473442e-3 2.932184105419635e-3
      2.969066441097874e-3 3.006412699448149e-3 3.044228715899306e-3 3.082520399280850e-3
      3.121293732746222e-3 3.160554774707657e-3 3.200309659782838e-3 3.240564599753442e-3
      3.281325884535732e-3 3.322599883163396e-3 3.364393044782684e-3 3.406711899660131e-3
      3.449563060202909e-3 3.492953221992032e-3 3.536889164828561e-3 3.581377753792952e-3
      3.626425940317745e-3 3.672040763273731e-3 3.718229350069801e-3 3.764998917766619e-3
      3.812356774204288e-3 3.860310319144227e-3 3.908867045425395e-3 3.958034540135058e-3
      4.007820485794303e-3 4.058232661558430e-3 4.109278944432463e-3 4.160967310501956e-3
      4.213305836179265e-3 4.266302699465520e-3 4.319966181228425e-3 4.374304666496187e-3
      4.429326645767681e-3 4.485040716339109e-3 4.541455583647352e-3 4.598580062630204e-3
      4.656423079103726e-3 4.714993671156925e-3 4.774300990563967e-3 4.834354304214179e-3
      4.895162995559995e-3 4.956736566083153e-3 5.019084636779323e-3 5.082216949661390e-3
      5.146143369281698e-3 5.210873884273365e-3 5.276418608911055e-3 5.342787784691348e-3
      5.409991781932976e-3 5.478041101397251e-3 5.546946375928780e-3 5.616718372116899e-3
      5.687367991977963e-3 5.758906274658809e-3 5.831344398161662e-3 5.904693681090688e-3
      5.978965584420578e-3 6.054171713287335e-3 6.130323818801595e-3 6.207433799884789e-3
      6.285513705128336e-3 6.364575734676286e-3 6.444632242131610e-3 6.525695736486469e-3
      6.607778884076789e-3 6.690894510561376e-3 6.775055602925971e-3 6.860275311512480e-3
      6.946566952073746e-3 7.033944007854178e-3 7.122420131696510e-3 7.212009148175094e-3
      7.302725055756028e-3 7.394582028984425e-3 7.487594420699252e-3 7.581776764275943e-3
      7.677143775897298e-3 7.773710356852908e-3 7.871491595867504e-3 7.970502771458636e-3
      8.070759354323920e-3 8.172277009758409e-3 8.275071600102295e-3 8.379159187219456e-3
      8.484556035007158e-3 8.591278611937295e-3 8.699343593629637e-3 8.808767865457437e-3
      8.919568525185786e-3 9.031762885643204e-3 9.145368477426768e-3 9.260403051641330e-3
      9.376884582673146e-3 9.494831270998414e-3 9.614261546027167e-3 9.735194068982857e-3
      9.857647735818230e-3 9.981641680167865e-3 1.010719527633783e-2 1.023432814233297e-2
      1.036306014292226e-2 1.049341139274269e-2 1.062540225944224e-2 1.075905336686238e-2
      1.089438559826056e-2 1.103142009957327e-2 1.117017828272013e-2 1.131068182894957e-2
      1.145295269222654e-2 1.159701310266289e-2 1.174288556999084e-2 1.189059288708019e-2
      1.204015813349974e-2 1.219160467912354e-2 1.234495618778246e-2 1.250023662096174e-2
      1.265747024154497e-2 1.281668161760527e-2 1.297789562624405e-2 1.314113745747818e-2
      1.330643261817588e-2 1.347380693604233e-2 1.364328656365520e-2 1.381489798255111e-2
      1.398866800736345e-2 1.416462379001209e-2 1.434279282394608e-2 1.452320294843944e-2
      1.470588235294118e-2 1.489085958147992e-2 1.507816353712396e-2 1.526782348649743e-2
      1.545986906435330e-2 1.565433027820382e-2 1.585123751300929e-2 1.605062153592577e-2
      1.625251350111248e-2 1.645694495459973e-2 1.666394783921803e-2 1.687355449958930e-2
      1.708579768718064e-2 1.730071056542193e-2 1.751832671488763e-2 1.773868013854384e-2
      1.796180526706133e-2 1.818773696419537e-2 1.841651053223331e-2 1.864816171751059e-2
      1.888272671599620e-2 1.912024217894840e-2 1.936074521864150e-2 1.960427341416476e-2
      1.985086481729418e-2 2.010055795843818e-2 2.035339185265811e-2 2.060940600576432e-2
      2.086864042048909e-2 2.113113560273713e-2 2.139693256791472e-2 2.166607284733847e-2
      2.193859849472457e-2 2.221455209275990e-2 2.249397675975558e-2 2.277691615638430e-2
      2.306341449250249e-2 2.335351653405800e-2 2.364726761008505e-2 2.394471361978693e-2
      2.424590103970777e-2 2.455087693099475e-2 2.485968894675135e-2 2.517238533948332e-2
      2.548901496863818e-2 2.580962730823968e-2 2.613427245461822e-2 2.646300113423838e-2
      2.679586471162514e-2 2.713291519738972e-2 2.747420525635622e-2 2.781978821579074e-2
      2.816971807373378e-2 2.852404950743757e-2 2.888283788190953e-2 2.924613925856312e-2
      2.961401040397760e-2 2.998650879876788e-2 3.036369264656599e-2 3.074562088311554e-2
      3.113235318548051e-2 3.152394998137000e-2 3.192047245858005e-2 3.232198257455446e-2
      3.272854306606571e-2 3.314021745901777e-2 3.355707007837212e-2 3.397916605819860e-2
      3.440657135185282e-2 3.483935274228149e-2 3.527757785245732e-2 3.572131515594542e-2
      3.617063398760221e-2 3.662560455440929e-2 3.708629794644338e-2 3.755278614798422e-2
      3.802514204876245e-2 3.850343945534856e-2 3.898775310268542e-2 3.947815866576576e-2
      3.997473277145654e-2 4.047755301047217e-2 4.098669794949783e-2 4.150224714346617e-2
      4.202428114798773e-2 4.255288153193765e-2 4.308813089020154e-2 4.363011285658041e-2
      4.417891211685929e-2 4.473461442203921e-2 4.529730660173575e-2 4.586707657774699e-2
      4.644401337779072e-2 4.702820714941580e-2 4.761974917408768e-2 4.821873188145108e-2
      4.882524886377281e-2 4.943939489056516e-2 5.006126592339438e-2 5.069095913087467e-2
      5.132857290385061e-2 5.197420687077167e-2 5.262796191325854e-2 5.328994018186678e-2
      5.396024511204774e-2 5.463898144031036e-2 5.532625522058697e-2 5.602217384080387e-2
      5.672684603966137e-2 5.744038192362434e-2 5.816289298412612e-2 5.889449211499014e-2
      5.963529363006876e-2 6.038541328110605e-2 6.114496827582368e-2 6.191407729623471e-2
      6.269286051718856e-2 6.348143962514773e-2 6.427993783720231e-2 6.508847992032260e-2
      6.590719221085389e-2 6.673620263425746e-2 6.757564072509838e-2 6.842563764728631e-2
      6.928632621456977e-2 7.015784091128828e-2 7.104031791338654e-2 7.193389510969127e-2
      7.283871212345755e-2 7.375491033418474e-2 7.468263289970709e-2 7.562202477856311e-2
      7.657323275264485e-2 7.753640545013367e-2 7.851169336872323e-2 7.949924889913480e-2
      8.049922634892949e-2 8.151178196661801e-2 8.253707396607581e-2 8.357526255126393e-2
      8.462650994126076e-2 8.569098039560998e-2 8.676884023998557e-2 8.786025789218122e-2
      8.896540388842576e-2 9.008445091002921e-2 9.121757381036575e-2 9.236494964219361e-2
      9.352675768532103e-2 9.470317947461860e-2 9.589439882838402e-2 9.710060187706521e-2
      9.832197709234222e-2 9.955871531657754e-2 1.008110097926350e-1 1.020790561940740e-1
      1.033630526557250e-1 1.046631998046470e-1 1.059797007914774e-1 1.073127613221741e-1
      1.086625896901566e-1 1.100293968088542e-1 1.114133962446595e-1 1.128148042503004e-1
      1.142338397986291e-1 1.156707246168367e-1 1.171256832210997e-1 1.185989429516599e-1
      1.200907340083477e-1 1.216012894865511e-1 1.231308454136363e-1 1.246796407858291e-1
      1.262479176055573e-1 1.278359209192647e-1 1.294438988557002e-1 1.310721026646873e-1
      1.327207867563842e-1 1.343902087410342e-1 1.360806294692189e-1 1.377923130726167e-1
      1.395255270052724e-1 1.412805420853899e-1 1.430576325376454e-1 1.448570760360379e-1
      1.466791537472754e-1 1.485241503747067e-1 1.503923542028090e-1 1.522840571422308e-1
      1.541995547754055e-1 1.561391464027355e-1 1.581031350893582e-1 1.600918277125022e-1
      1.621055350094354e-1 1.641445716260201e-1 1.662092561658763e-1 1.682999112401635e-1
      1.704168635179912e-1 1.725604437774590e-1 1.747309869573440e-1 1.769288322094344e-1
      1.791543229515217e-1 1.814078069210627e-1 1.836896362295120e-1 1.860001674173415e-1
      1.883397615097506e-1 1.907087840730755e-1 1.931076052719122e-1 1.955365999269528e-1
      1.979961475735545e-1 2.004866325210406e-1 2.030084439127514e-1 2.055619757868477e-1
      2.081476271378795e-1 2.107658019791316e-1 2.134169094057489e-1 2.161013636586609e-1
      2.188195841893066e-1 2.215719957251734e-1 2.243590283361644e-1 2.271811175017945e-1
      2.300387041792378e-1 2.329322348722270e-1 2.358621617008188e-1 2.388289424720420e-1
      2.418330407514274e-1 2.448749259354432e-1 2.479550733248390e-1 2.510739641989097e-1
      2.542320858907010e-1 2.574299318631513e-1 2.606680017862006e-1 2.639468016148626e-1
      2.672668436682804e-1 2.706286467097804e-1 2.740327360279267e-1 2.774796435186012e-1
      2.809699077681127e-1 2.845040741373503e-1 2.880826948470003e-1 2.917063290638284e-1
      2.953755429880540e-1 2.990909099418180e-1 3.028530104587652e-1 3.066624323747564e-1
      3.105197709197151e-1 3.144256288106374e-1 3.183806163457658e-1 3.223853514999482e-1
      3.264404600212010e-1 3.305465755284798e-1 3.347043396106872e-1 3.389144019269206e-1
      3.431774203079812e-1 3.474940608591655e-1 3.518649980643405e-1 3.562909148913379e-1
      3.607725028986672e-1 3.653104623435712e-1 3.699055022914470e-1 3.745583407266337e-1
      3.792697046646039e-1 3.840403302655587e-1 3.888709629494529e-1 3.937623575124729e-1
      3.987152782449692e-1 4.037304990508838e-1 4.088088035686719e-1 4.139509852937449e-1
      4.191578477024605e-1 4.244302043776623e-1 4.297688791358079e-1 4.351747061556908e-1
      4.406485301087798e-1 4.461912062912053e-1 4.518036007573961e-1 4.574865904554068e-1
      4.632410633639407e-1 4.690679186310956e-1 4.749680667148636e-1 4.809424295253849e-1
      4.869919405690045e-1 4.931175450941319e-1 4.993202002389347e-1 5.056008751809005e-1
      5.119605512882655e-1 5.184002222733611e-1 5.249208943478810e-1 5.315235863801019e-1
      5.382093300540888e-1 5.449791700308912e-1 5.518341641117793e-1 5.587753834035265e-1
      5.658039124857668e-1 5.729208495804708e-1 5.801273067235374e-1 5.874244099385578e-1
      5.948132994127564e-1 6.022951296751442e-1 6.098710697769237e-1 6.175423034741472e-1
      6.253100294126880e-1 6.331754613155287e-1 6.411398281724045e-1 6.492043744318425e-1
      6.573703601956008e-1 6.656390614155701e-1 6.740117700931400e-1 6.824897944810732e-1
      6.910744592879317e-1 6.997671058850544e-1 7.085690925161590e-1 7.174817945095658e-1
      7.265066044930910e-1 7.356449326116589e-1 7.448982067476274e-1 7.542678727439074e-1
      7.637553946298748e-1 7.733622548501243e-1 7.830899544961131e-1 7.929400135406994e-1
      8.029139710756505e-1 8.130133855521247e-1 8.232398350241787e-1 8.335949173953511e-1
      8.440802506683271e-1 8.546974731977645e-1 8.654482439462862e-1 8.763342427436910e-1
      8.873571705494420e-1 8.985187497184320e-1 9.098207242701161e-1 9.212648601610136e-1
      9.328529455606374e-1 9.445867911309110e-1 9.564682303090738e-1 9.684991195941720e-1
      9.806813388371355e-1 9.930167915345020e-1 1.005507405125856e0 1.018155131294980e0
      1.030961946274821e0 1.043929851156278e0 1.057060872200869e0 1.070357061157349e0
      1.083820495582292e0 1.097453279164719e0 1.111257542054804e0 1.125235441196704e0
      1.139389160665603e0 1.153720912008958e0 1.168232934592078e0 1.182927495948019e0
      1.197806892131885e0 1.212873448079604e0 1.228129517971195e0 1.243577485598618e0
      1.259219764738245e0 1.275058799528013e0 1.291097064849337e0 1.307337066713799e0
      1.323781342654733e0 1.340432462123713e0 1.357293026892028e0 1.374365671457232e0
      1.391653063454767e0 1.409157904074807e0 1.426882928484316e0 1.444830906254413e0
      1.463004641793146e0 1.481406974783664e0 1.500040780627937e0 1.518908970896042e0
      1.538014493781092e0 1.557360334559912e0 1.576949516059479e0 1.596785099129259e0
      1.616870183119465e0 1.637207906365328e0 1.657801446677490e0 1.678654021838515e0
      1.699768890105701e0 1.721149350720175e0 1.742798744422402e0 1.764720453974199e0
      1.786917904687279e0 1.809394564958479e0 1.832153946811698e0 1.855199606446649e0
      1.878535144794545e0 1.902164208080720e0 1.926090488394391e0 1.950317724265539e0
      1.974849701249052e0 1.999690252516252e0 2.024843259453805e0 2.050312652270223e0
      2.076102410609955e0 2.102216564175206e0 2.128659193355605e0 2.155434429865753e0
      2.182546457390832e0 2.209999512240309e0 2.237797884009847e0 2.265945916251602e0
      2.294448007152869e0 2.323308610223345e0 2.352532234990981e0 2.382123447706594e0
      2.412086872057382e0 2.442427189889354e0 2.473149141938904e0 2.504257528573546e0
      2.535757210541976e0 2.567653109733595e0 2.599950209947536e0 2.632653557671421e0
      2.665768262869873e0 2.699299499782941e0 2.733252507734623e0 2.767632591951478e0
      2.802445124391618e0 2.837695544584068e0 2.873389360478690e0 2.909532149306849e0
      2.946129558452821e0 2.983187306336248e0 3.020711183305638e0 3.058707052543097e0
      3.097180850980511e0 3.136138590227147e0 3.175586357509031e0 3.215530316620062e0
      3.255976708885105e0 3.296931854135254e0 3.338402151695266e0 3.380394081383512e0
      3.422914204524445e0 3.465969164973803e0 3.509565690156763e0 3.553710592119070e0
      3.598410768591477e0 3.643673204067505e0 3.689504970894773e0 3.735913230380107e0
      3.782905233908455e0 3.830488324075982e0 3.878669935837342e0 3.927457597667384e0
      3.976858932737545e0 4.026881660106920e0 4.077533595928441e0 4.128822654670140e0
      4.180756850351778e0 4.233344297797108e0 4.286593213901766e0 4.340511918917239e0
      4.395108837750890e0 4.450392501282351e0 4.506371547696538e0 4.563054723833329e0
      4.620450886554327e0 4.678569004126736e0 4.737418157624655e0 4.797007542348063e0
      4.857346469259543e0 4.918444366439192e0 4.980310780557758e0 5.042955378368299e0
      5.106387948216692e0 5.170618401571012e0 5.235656774570281e0 5.301513229592613e0
      5.368198056843073e0 5.435721675961607e0 5.504094637651061e0 5.573327625325817e0
      5.643431456781063e0 5.714417085883071e0 5.786295604280830e0 5.859078243139058e0
      5.932776374893163e0 6.007401515026184e0 6.082965323868071e0 6.159479608417711e0
      6.236956324187714e0 6.315407577072557e0 6.394845625240126e0 6.475282881047043e0
      6.556731912978200e0 6.639205447610522e0 6.722716371601601e0 6.807277733703229e0
      6.892902746800250e0 6.979604789975190e0 7.067397410598667e0 7.156294326446282e0
      7.246309427842012e0 7.337456779828559e0 7.429750624365139e0 7.523205382552709e0
      7.617835656887382e0 7.713656233542065e0 7.810682084676781e0 7.908928370778197e0
      8.008410443028374e0 8.109143845703512e0 8.211144318602734e0 8.314427799507428e0
      8.419010426671646e0 8.524908541343624e0 8.632138690319248e0 8.740717628527474e0
      8.850662321648269e0 8.961989948763648e0 9.074717905041821e0 9.188863804455309e0
      9.304445482533149e0 9.421480999147660e0 9.539988641336455e0 9.659986926159702e0
      9.781494603593556e0 9.904530659459844e0 1.002911431839258e1 1.015526504684198e1
      1.028300255611597e1 1.041234680546028e1 1.054331800517706e1 1.067593661978267e1
      1.081022337120550e1 1.094619924202363e1 1.108388547874355e1 1.122330359511988e1
      1.136447537551691e1 1.150742287831260e1 1.165216843934503e1 1.179873467540263e1
      1.194714448775800e1 1.209742106574621e1 1.224958789038836e1 1.240366873806035e1
      1.255968768420811e1 1.271766910710944e1 1.287763769168303e1 1.303961843334572e1
      1.320363664191792e1 1.336971794557842e1 1.353788829486884e1 1.370817396674836e1
      1.388060156869970e1 1.405519804288644e1 1.423199067036289e1 1.441100707533683e1
      1.459227522948568e1 1.477582345632738e1 1.496168043564575e1 1.514987520797197e1
      1.534043717912212e1 1.553339612479184e1 1.572878219520903e1 1.592662591984465e1
      1.612695821218322e1 1.632981037455302e1 1.653521410301707e1 1.674320149232590e1
      1.695380504093218e1 1.716705765606890e1 1.738299265889106e1 1.760164378968211e1
      1.782304521312615e1 1.804723152364598e1 1.827423775080876e1 1.850409936479936e1
      1.873685228196256e1 1.897253287041527e1 1.921117795572886e1 1.945282482668349e1
      1.969751124109440e1 1.994527543171159e1 2.019615611219400e1 2.045019248315831e1
      2.070742423830435e1 2.096789157061724e1 2.123163517864751e1 2.149869627287058e1
      2.176911658212568e1 2.204293836013635e1 2.232020439211254e1 2.260095800143577e1
      2.288524305642877e1 2.317310397720968e1 2.346458574263307e1 2.375973389731787e1
      2.405859455876364e1 2.436121442455684e1 2.466764077966712e1 2.497792150383592e1
      2.529210507905771e1 2.561024059715525e1 2.593237776745059e1 2.625856692453187e1
      2.658885903611858e1 2.692330571102518e1 2.726195920722498e1 2.760487244001584e1
      2.795209899028795e1 2.830369311289628e1 2.865970974513786e1 2.902020451533571e1
      2.938523375153119e1 2.975485449028501e1 3.012912448558968e1 3.050810221789343e1
      3.089184690323791e1 3.128041850251101e1 3.167387773081559e1 3.207228606695661e1
      3.247570576304723e1 3.288419985423559e1 3.329783216855466e1 3.371666733689498e1
      3.414077080310377e1 3.457020883421055e1 3.500504853078127e1 3.544535783740329e1
      3.589120555330148e1 3.634266134308861e1 3.679979574765038e1 3.726268019516741e1
      3.773138701227652e1 3.820598943537134e1 3.868656162204611e1 3.917317866268283e1
      3.966591659218397e1 4.016485240185364e1 4.067006405142706e1 4.118163048125240e1
      4.169963162462519e1 4.222414842027781e1 4.275526282502688e1 4.329305782657854e1
      4.383761745649601e1 4.438902680332946e1 4.494737202591103e1 4.551274036681786e1
      4.608522016600332e1 4.666490087460082e1 4.725187306890056e1 4.784622846450189e1
      4.844805993064480e1 4.905746150472013e1 4.967452840696375e1 5.029935705533466e1
      5.093204508058022e1 5.157269134149176e1 5.222139594035077e1 5.287826023857072e1
      5.354338687253469e1 5.421687976963227e1 5.489884416449905e1 5.558938661545898e1
      5.628861502117509e1 5.699663863750843e1 5.771356809458934e1 5.843951541410429e1
      5.917459402679872e1 5.991891879020148e1 6.067260600657129e1 6.143577344106891e1