<UPF version="2.0.1">
  <PP_INFO>
Generated using "atomic" code by A. Dal Corso  v.6.2.2
Author: ADC
Generation date:  4May2018
Pseudopotential type: USPP
Element: Eu
Functional: PBE
    Suggested minimum cutoff for wavefunctions:  35. Ry
    Suggested minimum cutoff for charge density: 259. Ry
    The Pseudo was generated with a Scalar-Relativistic Calculation
    Local Potential by smoothing AE potential with Bessel fncs, cutoff radius:   1.9000
    Pseudopotential contains additional information for GIPAW reconstruction.
    Valence configuration:
    nl pn  l   occ       Rcut    Rcut US       E pseu
    5S  1  0  2.00      1.200      1.600    -3.592285
    6S  2  0  1.50      1.200      1.600    -0.325817
    5P  2  1  6.00      1.200      1.900    -2.005118
    6P  3  1  0.50      1.200      1.900    -0.120126
    5D  3  2  1.00      1.200      2.000    -0.231828
    Generation configuration:
    5S  1  0  2.00      1.200      1.600    -3.592329
    6S  2  0  1.50      1.200      1.600    -0.325827
    5P  2  1  6.00      1.200      1.900    -2.005151
    6P  3  1  0.50      1.200      1.900    -0.120130
    5D  3  2  1.00      1.200      2.000    -0.231845
    5D  3  2  0.00      1.200      2.000     2.000000
    Pseudization used: troullier-martins

    <PP_INPUTFILE>
 &amp;input
   title='Eu',
   zed=63.0,
   rel=1,
   config='[Xe] 4f6.0 5d1.0 6s1.5 6p0.5',
   iswitch=3,
   dft='PBE'
 /
 &amp;inputp
   lpaw=.false.,
   use_xsd=.FALSE.,
   pseudotype=3,
   file_pseudopw='Eu.pbe-spdn-rrkjus_psl.1.0.0.UPF',
   author='ADC',
   lloc=-1,
   rcloc=1.9,
   which_augfun='PSQ',
   rmatch_augfun_nc=.true.,
   nlcc=.true.,
   new_core_ps=.true.,
   rcore=1.1,
   tm=.true.
 /
6
5S  1  0  2.00  0.00  1.20  1.60  0.0
6S  2  0  1.50  0.00  1.20  1.60  0.0
5P  2  1  6.00  0.00  1.20  1.90  0.0
6P  3  1  0.50  0.00  1.20  1.90  0.0
5D  3  2  1.00  0.00  1.20  2.00  0.0
5D  3  2  0.00  2.00  1.20  2.00  0.0
</PP_INPUTFILE>
  </PP_INFO>
  <!--
 END OF HUMAN READABLE SECTION 
-->
  <PP_HEADER generated="Generated using &quot;atomic&quot; code by A. Dal Corso  v.6.2.2" author="ADC" date=" 4May2018" comment="" element="Eu" pseudo_type="USPP" relativistic="scalar" is_ultrasoft="true" is_paw="false" is_coulomb="false" has_so="false" has_wfc="false" has_gipaw="true" paw_as_gipaw="false" core_correction="true" functional="PBE" z_valence="1.100000000000e1" total_psenergy="-1.234648582880e2" wfc_cutoff="3.472293265320e1" rho_cutoff="2.585634504337e2" l_max="2" l_max_rho="4" l_local="-1" mesh_size="1261" number_of_wfc="5" number_of_proj="6"/>
  <PP_MESH dx="1.250000000000e-2" mesh="1261" xmin="-7.000000000000e0" rmax="1.000000000000e2" zmesh="6.300000000000e1">
    <PP_R>
      1.447431691356375e-5 1.465638140744480e-5 1.484073599073940e-5 1.502740946922625e-5
      1.521643101101619e-5 1.540783015110967e-5 1.560163679601173e-5 1.579788122840494e-5
      1.599659411188112e-5 1.619780649573261e-5 1.640154981980376e-5 1.660785591940347e-5
      1.681675703027953e-5 1.702828579365551e-5 1.724247526133108e-5 1.745935890084632e-5
      1.767897060071116e-5 1.790134467570051e-5 1.812651587221599e-5 1.835451937371520e-5
      1.858539080620912e-5 1.881916624382878e-5 1.905588221446192e-5 1.929557570546056e-5
      1.953828416942033e-5 1.978404553003253e-5 2.003289818800976e-5 2.028488102708610e-5
      2.054003342009282e-5 2.079839523511047e-5 2.106000684169828e-5 2.132490911720200e-5
      2.159314345314117e-5 2.186475176167646e-5 2.213977648215872e-5 2.241826058776003e-5
      2.270024759218848e-5 2.298578155648723e-5 2.327490709591910e-5 2.356766938693789e-5
      2.386411417424718e-5 2.416428777794812e-5 2.446823710077699e-5 2.477600963543384e-5
      2.508765347200344e-5 2.540321730546927e-5 2.572275044332233e-5 2.604630281326549e-5
      2.637392497101482e-5 2.670566810819906e-5 2.704158406035831e-5 2.738172531504353e-5
      2.772614502001777e-5 2.807489699156065e-5 2.842803572287730e-5 2.878561639261293e-5
      2.914769487347471e-5 2.951432774096192e-5 2.988557228220598e-5 3.026148650492186e-5
      3.064212914647157e-5 3.102755968304233e-5 3.141783833893963e-5 3.181302609599745e-5
      3.221318470310688e-5 3.261837668586443e-5 3.302866535634174e-5 3.344411482297832e-5
      3.386479000059854e-5 3.429075662055483e-5 3.472208124099818e-5 3.515883125727805e-5
      3.560107491247306e-5 3.604888130805408e-5 3.650232041468152e-5 3.696146308313831e-5
      3.742638105540052e-5 3.789714697584720e-5 3.837383440261116e-5 3.885651781907273e-5
      3.934527264549775e-5 3.984017525082220e-5 4.034130296458506e-5 4.084873408901110e-5
      4.136254791124601e-5 4.188282471574479e-5 4.240964579681667e-5 4.294309347132740e-5
      4.348325109156141e-5 4.403020305824585e-5 4.458403483373830e-5 4.514483295538044e-5
      4.571268504901972e-5 4.628767984270107e-5 4.686990718053091e-5 4.745945803671525e-5
      4.805642452977485e-5 4.866089993693878e-5 4.927297870871919e-5 4.989275648366953e-5
      5.052033010332805e-5 5.115579762734962e-5 5.179925834882775e-5 5.245081280980925e-5
      5.311056281700432e-5 5.377861145769383e-5 5.445506311583705e-5 5.514002348838178e-5
      5.583359960177981e-5 5.653589982871000e-5 5.724703390501160e-5 5.796711294683085e-5
      5.869624946798304e-5 5.943455739753301e-5 6.018215209759695e-5 6.093915038136767e-5
      6.170567053136715e-5 6.248183231792831e-5 6.326775701790938e-5 6.406356743364379e-5
      6.486938791212804e-5 6.568534436445137e-5 6.651156428546954e-5 6.734817677372604e-5
      6.819531255162445e-5 6.905310398585346e-5 6.992168510806993e-5 7.080119163584130e-5
      7.169176099385183e-5 7.259353233537576e-5 7.350664656401977e-5 7.443124635573986e-5
      7.536747618113457e-5 7.631548232801882e-5 7.727541292428196e-5 7.824741796103256e-5
      7.923164931603520e-5 8.022826077744149e-5 8.123740806781987e-5 8.225924886848770e-5
      8.329394284414896e-5 8.434165166784247e-5 8.540253904620352e-5 8.647677074504326e-5
      8.756451461525037e-5 8.866594061901745e-5 8.978122085639855e-5 9.091052959219976e-5
      9.205404328320860e-5 9.321194060576589e-5 9.438440248368405e-5 9.557161211651678e-5
      9.677375500818474e-5 9.799101899596035e-5 9.922359427981842e-5 1.004716734521547e-4
      1.017354515278791e-4 1.030151259748871e-4 1.043108967449145e-4 1.056229663047805e-4
      1.069515396680233e-4 1.082968244269338e-4 1.096590307849926e-4 1.110383715897145e-4
      1.124350623659068e-4 1.138493213493444e-4 1.152813695208713e-4 1.167314306409275e-4
      1.181997312845133e-4 1.196865008765917e-4 1.211919717279359e-4 1.227163790714297e-4
      1.242599610988218e-4 1.258229589979444e-4 1.274056169903993e-4 1.290081823697176e-4
      1.306309055400005e-4 1.322740400550446e-4 1.339378426579608e-4 1.356225733212912e-4
      1.373284952876291e-4 1.390558751107528e-4 1.408049826972739e-4 1.425760913488114e-4
      1.443694778046956e-4 1.461854222852086e-4 1.480242085353703e-4 1.498861238692732e-4
      1.517714592149763e-4 1.536805091599634e-4 1.556135719971719e-4 1.575709497716034e-4
      1.595529483275172e-4 1.615598773562201e-4 1.635920504444563e-4 1.656497851234048e-4
      1.677334029182961e-4 1.698432293986496e-4 1.719795942291453e-4 1.741428312211347e-4
      1.763332783847986e-4 1.785512779819629e-4 1.807971765795774e-4 1.830713251038670e-4
      1.853740788951660e-4 1.877057977634384e-4 1.900668460445019e-4 1.924575926569540e-4
      1.948784111598165e-4 1.973296798109063e-4 1.998117816259365e-4 2.023251044383662e-4
      2.048700409599980e-4 2.074469888423410e-4 2.100563507387451e-4 2.126985343673147e-4
      2.153739525746180e-4 2.180830234001927e-4 2.208261701418669e-4 2.236038214219005e-4
      2.264164112539564e-4 2.292643791109187e-4 2.321481699935591e-4 2.350682345000698e-4
      2.380250288964717e-4 2.410190151879038e-4 2.440506611908164e-4 2.471204406060648e-4
      2.502288330929284e-4 2.533763243440575e-4 2.565634061613631e-4 2.597905765328639e-4
      2.630583397104961e-4 2.663672062889041e-4 2.697176932852235e-4 2.731103242198632e-4
      2.765456291983098e-4 2.800241449939549e-4 2.835464151319688e-4 2.871129899742272e-4
      2.907244268053045e-4 2.943812899195537e-4 2.980841507092764e-4 3.018335877540040e-4
      3.056301869109036e-4 3.094745414063174e-4 3.133672519284568e-4 3.173089267212608e-4
      3.213001816794348e-4 3.253416404446866e-4 3.294339345031705e-4 3.335777032841592e-4
      3.377735942599553e-4 3.420222630470598e-4 3.463243735086154e-4 3.506805978581340e-4
      3.550916167645334e-4 3.595581194584916e-4 3.640808038401417e-4 3.686603765881203e-4
      3.732975532699859e-4 3.779930584540298e-4 3.827476258224900e-4 3.875619982861910e-4
      3.924369281006254e-4 3.973731769834943e-4 4.023715162337293e-4 4.074327268520070e-4
      4.125575996627832e-4 4.177469354378621e-4 4.230015450215157e-4 4.283222494571824e-4
      4.337098801157551e-4 4.391652788254853e-4 4.446892980035209e-4 4.502828007890969e-4
      4.559466611784036e-4 4.616817641611504e-4 4.674890058588460e-4 4.733692936648208e-4
      4.793235463860079e-4 4.853526943865094e-4 4.914576797329666e-4 4.976394563417601e-4
      5.038989901280628e-4 5.102372591567629e-4 5.166552537952926e-4 5.231539768683708e-4
      5.297344438146999e-4 5.363976828456279e-4 5.431447351058102e-4 5.499766548358894e-4
      5.568945095372227e-4 5.638993801386820e-4 5.709923611655501e-4 5.781745609105434e-4
      5.854471016069843e-4 5.928111196041526e-4 6.002677655448427e-4 6.078182045451534e-4
      6.154636163765398e-4 6.232051956501559e-4 6.310441520035129e-4 6.389817102894897e-4
      6.470191107677179e-4 6.551576092983737e-4 6.633984775384115e-4 6.717430031402591e-4
      6.801924899530189e-4 6.887482582261963e-4 6.974116448159908e-4 7.061840033941830e-4
      7.150667046596480e-4 7.240611365525302e-4 7.331687044711130e-4 7.423908314914125e-4
      7.517289585895387e-4 7.611845448668486e-4 7.707590677779361e-4 7.804540233614854e-4
      7.902709264740309e-4 8.002113110266567e-4 8.102767302246733e-4 8.204687568103083e-4
      8.307889833084504e-4 8.412390222754890e-4 8.518205065512719e-4 8.625350895142459e-4
      8.733844453397978e-4 8.843702692618473e-4 8.954942778377358e-4 9.067582092164333e-4
      9.181638234101348e-4 9.297129025692628e-4 9.414072512609323e-4 9.532486967509197e-4
      9.652390892891741e-4 9.773803023989242e-4 9.896742331694199e-4 1.002122802552355e-3
      1.014727955662025e-3 1.027491662079247e-3 1.040415916159117e-3 1.053502737342629e-3
      1.066754170472219e-3 1.080172286111273e-3 1.093759180867660e-3 1.107516977721328e-3
      1.121447826356026e-3 1.135553903495194e-3 1.149837413242087e-3 1.164300587424161e-3
      1.178945685941808e-3 1.193774997121467e-3 1.208790838073180e-3 1.223995555052646e-3
      1.239391523827828e-3 1.254981150050170e-3 1.270766869630485e-3 1.286751149119575e-3
      1.302936486093631e-3 1.319325409544485e-3 1.335920480274768e-3 1.352724291298045e-3
      1.369739468243976e-3 1.386968669768578e-3 1.404414587969640e-3 1.422079948807376e-3
      1.439967512530358e-3 1.458080074106808e-3 1.476420463661325e-3 1.494991546917091e-3
      1.513796225643645e-3 1.532837438110299e-3 1.552118159545239e-3 1.571641402600418e-3
      1.591410217822282e-3 1.611427694128430e-3 1.631696959290261e-3 1.652221180421693e-3
      1.673003564474037e-3 1.694047358737083e-3 1.715355851346497e-3 1.736932371797603e-3
      1.758780291465618e-3 1.780903024132440e-3 1.803304026520060e-3 1.825986798830673e-3
      1.848954885293604e-3 1.872211874719089e-3 1.895761401059042e-3 1.919607143974869e-3
      1.943752829412412e-3 1.968202230184147e-3 1.992959166558688e-3 2.018027506857707e-3
      2.043411168060385e-3 2.069114116415424e-3 2.095140368060798e-3 2.121493989651278e-3
      2.148179098993852e-3 2.175199865691150e-3 2.202560511792941e-3 2.230265312455844e-3
      2.258318596611328e-3 2.286724747642115e-3 2.315488204067101e-3 2.344613460234870e-3
      2.374105067025954e-3 2.403967632563916e-3 2.434205822935373e-3 2.464824362919095e-3
      2.495828036724248e-3 2.527221688737942e-3 2.559010224282173e-3 2.591198610380292e-3
      2.623791876533121e-3 2.656795115504802e-3 2.690213484118575e-3 2.724052204062521e-3
      2.758316562705478e-3 2.793011913923199e-3 2.828143678934896e-3 2.863717347150331e-3
      2.899738477027536e-3 2.936212696941338e-3 2.973145706062811e-3 3.010543275249767e-3
      3.048411247948479e-3 3.086755541106725e-3 3.125582146098318e-3 3.164897129659288e-3
      3.204706634835801e-3 3.245016881944034e-3 3.285834169542108e-3 3.327164875414251e-3
      3.369015457567351e-3 3.411392455240010e-3 3.454302489924333e-3 3.497752266400540e-3
      3.541748573784600e-3 3.586298286589062e-3 3.631408365797183e-3 3.677085859950617e-3
      3.723337906250759e-3 3.770171731673939e-3 3.817594654100669e-3 3.865614083459060e-3
      3.914237522882644e-3 3.963472569882758e-3 4.013326917535657e-3 4.063808355684605e-3
      4.114924772157009e-3 4.166684153996943e-3 4.219094588713124e-3 4.272164265542602e-3
      4.325901476730359e-3 4.380314618824972e-3 4.435412193990595e-3 4.491202811335445e-3
      4.547695188256985e-3 4.604898151804052e-3 4.662820640056078e-3 4.721471703519694e-3
      4.780860506542894e-3 4.840996328746973e-3 4.901888566476506e-3 4.963546734267521e-3
      5.025980466334180e-3 5.089199518074141e-3 5.153213767592853e-3 5.218033217247051e-3
      5.283667995207614e-3 5.350128357042134e-3 5.417424687317363e-3 5.485567501221817e-3
      5.554567446208816e-3 5.624435303660141e-3 5.695181990570664e-3 5.766818561254151e-3
      5.839356209070513e-3 5.912806268174809e-3 5.987180215288207e-3 6.062489671491256e-3
      6.138746404039706e-3 6.215962328203158e-3 6.294149509126873e-3 6.373320163716933e-3
      6.453486662549196e-3 6.534661531802202e-3 6.616857455214419e-3 6.700087276066120e-3
      6.784363999186139e-3 6.869700792983929e-3 6.956110991507135e-3 7.043608096525078e-3
      7.132205779638438e-3 7.221917884415454e-3 7.312758428555016e-3 7.404741606076963e-3
      7.497881789539917e-3 7.592193532287050e-3 7.687691570720041e-3 7.784390826601689e-3
      7.882306409387459e-3 7.981453618586364e-3 8.081847946151575e-3 8.183505078901019e-3
      8.286440900968513e-3 8.390671496285679e-3 8.496213151095084e-3 8.603082356495035e-3
      8.711295811016296e-3 8.820870423231298e-3 8.931823314396127e-3 9.044171821125762e-3
      9.157933498102967e-3 9.273126120821207e-3 9.389767688362149e-3 9.507876426208027e-3
      9.627470789089420e-3 9.748569463868856e-3 9.871191372460640e-3 9.995355674787467e-3
      1.012108177177419e-2 1.024838930837924e-2 1.037729817666424e-2 1.050782851890213e-2
      1.064000073072444e-2 1.077383546430817e-2 1.090935363160273e-2 1.104657640759749e-2
      1.118552523363038e-2 1.132622182073814e-2 1.146868815304877e-2 1.161294649121654e-2
      1.175901937590029e-2 1.190692963128543e-2 1.205670036865030e-2 1.220835498997732e-2
      1.236191719160960e-2 1.251741096795360e-2 1.267486061522821e-2 1.283429073526116e-2
      1.299572623933305e-2 1.315919235206985e-2 1.332471461538425e-2 1.349231889246664e-2
      1.366203137182632e-2 1.383387857138347e-2 1.400788734261262e-2 1.418408487473835e-2
      1.436249869898349e-2 1.454315669287108e-2 1.472608708458022e-2 1.491131845735676e-2
      1.509887975397959e-2 1.528880028128289e-2 1.548110971473545e-2 1.567583810307749e-2
      1.587301587301587e-2 1.607267383397832e-2 1.627484318292745e-2 1.647955550923533e-2
      1.668684279961944e-2 1.689673744314063e-2 1.710927223626399e-2 1.732448038798337e-2
      1.754239552501029e-2 1.776305169702827e-2 1.798648338201312e-2 1.821272549162020e-2
      1.844181337663942e-2 1.867378283251891e-2 1.890867010495808e-2 1.914651189557113e-2
      1.938734536762174e-2 1.963120815182992e-2 1.987813835225182e-2 2.012817455223366e-2
      2.038135582044034e-2 2.063772171696018e-2 2.089731229948606e-2 2.116016812957466e-2
      2.142633027898419e-2 2.169584033609201e-2 2.196874041239289e-2 2.224507314907895e-2
      2.252488172370251e-2 2.280820985692263e-2 2.309510181933653e-2 2.338560243839708e-2
      2.367975710541700e-2 2.397761178266149e-2 2.427921301052983e-2 2.458460791482751e-2
      2.489384421412967e-2 2.520697022723721e-2 2.552403488072672e-2 2.584508771659542e-2
      2.617017890000203e-2 2.649935922710545e-2 2.683268013300146e-2 2.717019369975977e-2
      2.751195266456184e-2 2.785801042794125e-2 2.820842106212760e-2 2.856323931949539e-2
      2.892252064111921e-2 2.928632116543652e-2 2.965469773701940e-2 3.002770791545667e-2
      3.040540998434757e-2 3.078786296040881e-2 3.117512660269601e-2 3.156726142194114e-2
      3.196432869000757e-2 3.236639044946374e-2 3.277350952327758e-2 3.318574952463265e-2
      3.360317486686786e-2 3.402585077354222e-2 3.445384328862608e-2 3.488721928682068e-2
      3.532604648400744e-2 3.577039344782871e-2 3.622032960840165e-2 3.667592526916674e-2
      3.713725161787289e-2 3.760438073770065e-2 3.807738561852536e-2 3.855634016832204e-2
      3.904131922471350e-2 3.953239856666401e-2 4.002965492631984e-2 4.053316600099883e-2
      4.104301046533090e-2 4.155926798355082e-2 4.208201922194616e-2 4.261134586146146e-2
      4.314733061046104e-2 4.369005721765250e-2 4.423961048517225e-2 4.479607628183651e-2
      4.535954155655819e-2 4.593009435193272e-2 4.650782381799531e-2 4.709282022615030e-2
      4.768517498327670e-2 4.828498064601057e-2 4.889233093520684e-2 4.950732075058405e-2
      5.013004618555189e-2 5.076060454222658e-2 5.139909434663434e-2 5.204561536410593e-2
      5.270026861486590e-2 5.336315638981636e-2 5.403438226652092e-2 5.471405112538853e-2
      5.540226916606096e-2 5.609914392400751e-2 5.680478428732667e-2 5.751930051376096e-2
      5.824280424792455e-2 5.897540853874768e-2 5.971722785714149e-2 6.046837811388354e-2
      6.122897667772973e-2 6.199914239375325e-2 6.277899560191392e-2 6.356865815586237e-2
      6.436825344197898e-2 6.517790639865416e-2 6.599774353580968e-2 6.682789295466602e-2
      6.766848436775908e-2 6.851964911920707e-2 6.938152020523424e-2 7.025423229495138e-2
      7.113792175139785e-2 7.203272665284932e-2 7.293878681439191e-2 7.385624380976934e-2
      7.478524099350388e-2 7.572592352329528e-2 7.667843838270293e-2 7.764293440411121e-2
      7.861956229198592e-2 7.960847464642163e-2 8.060982598698542e-2 8.162377277686177e-2
      8.265047344729922e-2 8.369008842236649e-2 8.474278014401872e-2 8.580871309747884e-2
      8.688805383693976e-2 8.798097101158769e-2 8.908763539195485e-2 9.020821989660234e-2
      9.134289961913858e-2 9.249185185557904e-2 9.365525613204792e-2 9.483329423283051e-2
      9.602615022877700e-2 9.723401050606327e-2 9.845706379531542e-2 9.969550120109789e-2
      1.009495162317751e-1 1.022193048297470e-1 1.035050654020653e-1 1.048069988514355e-1
      1.061253086076075e-1 1.074602006591631e-1 1.088118835857013e-1 1.101805685904292e-1
      1.115664695331635e-1 1.129698029637460e-1 1.143907881558804e-1 1.158296471413942e-1
      1.172866047449310e-1 1.187618886190807e-1 1.202557292799500e-1 1.217683601431814e-1
      1.233000175604250e-1 1.248509408562681e-1 1.264213723656314e-1 1.280115574716329e-1
      1.296217446439309e-1 1.312521854775472e-1 1.329031347321788e-1 1.345748503720061e-1
      1.362675936059984e-1 1.379816289287302e-1 1.397172241617082e-1 1.414746504952180e-1
      1.432541825307005e-1 1.450560983236560e-1 1.468806794270935e-1 1.487282109355228e-1
      1.505989815295004e-1 1.524932835207383e-1 1.544114128977760e-1 1.563536693722314e-1
      1.583203564256306e-1 1.603117813568262e-1 1.623282553300160e-1 1.643700934233602e-1
      1.664376146782154e-1 1.685311421489843e-1 1.706510029535929e-1 1.727975283246055e-1
      1.749710536609779e-1 1.771719185804661e-1 1.794004669726919e-1 1.816570470528749e-1
      1.839420114162445e-1 1.862557170931304e-1 1.885985256047523e-1 1.909708030197070e-1
      1.933729200111663e-1 1.958052519147979e-1 1.982681787874098e-1 2.007620854663369e-1
      2.032873616295721e-1 2.058444018566529e-1 2.084336056903179e-1 2.110553776989331e-1
      2.137101275397097e-1 2.163982700227105e-1 2.191202251756682e-1 2.218764183096134e-1
      2.246672800853303e-1 2.274932465806500e-1 2.303547593585861e-1 2.332522655363324e-1
      2.361862178551246e-1 2.391570747509808e-1 2.421653004263362e-1 2.452113649225718e-1
      2.482957441934631e-1 2.514189201795465e-1 2.545813808834234e-1 2.577836204460136e-1
      2.610261392237629e-1 2.643094438668276e-1 2.676340473982389e-1 2.710004692940613e-1
      2.744092355645661e-1 2.778608788364173e-1 2.813559384358990e-1 2.848949604731850e-1
      2.884784979276677e-1 2.921071107343662e-1 2.957813658714130e-1 2.995018374486489e-1
      3.032691067973281e-1 3.070837625609495e-1 3.109464007872384e-1 3.148576250212751e-1
      3.188180463998043e-1 3.228282837467242e-1 3.268889636697783e-1 3.310007206584672e-1
      3.351641971831846e-1 3.393800437956086e-1 3.436489192303504e-1 3.479714905078806e-1
      3.523484330387566e-1 3.567804307291528e-1 3.612681760877259e-1 3.658123703338191e-1
      3.704137235070273e-1 3.750729545781468e-1 3.797907915615104e-1 3.845679716287457e-1
      3.894052412239583e-1 3.943033561803626e-1 3.992630818383873e-1 4.042851931652555e-1
      4.093704748760803e-1 4.145197215564761e-1 4.197337377867111e-1 4.250133382674310e-1
      4.303593479469509e-1 4.357726021501603e-1 4.412539467090427e-1 4.468042380948357e-1
      4.524243435518621e-1 4.581151412330323e-1 4.638775203370625e-1 4.697123812474124e-1
      4.756206356729686e-1 4.816032067905073e-1 4.876610293889355e-1 4.937950500153597e-1
      5.000062271229836e-1 5.062955312208651e-1 5.126639450255670e-1 5.191124636147012e-1
      5.256420945824177e-1 5.322538581968407e-1 5.389487875594851e-1 5.457279287666863e-1
      5.525923410730485e-1 5.595430970569611e-1 5.665812827881891e-1 5.737079979975704e-1
      5.809243562488577e-1 5.882314851127078e-1 5.956305263428730e-1 6.031226360546000e-1
      6.107089849052720e-1 6.183907582773337e-1 6.261691564635007e-1 6.340453948543164e-1
      6.420207041280546e-1 6.500963304430128e-1 6.582735356322350e-1 6.665535974006668e-1
      6.749378095248061e-1 6.834274820548564e-1 6.920239415194208e-1 7.007285311327824e-1
      7.095426110047756e-1 7.184675583533138e-1 7.275047677195796e-1 7.366556511859202e-1
      7.459216385964976e-1 7.553041777806937e-1 7.648047347793463e-1 7.744247940738170e-1
      7.841658588179396e-1 7.940294510729018e-1 8.040171120450582e-1 8.141304023267571e-1
      8.243709021401823e-1 8.347402115842611e-1 8.452399508846934e-1 8.558717606471042e-1
      8.666373021134007e-1 8.775382574213410e-1 8.885763298673675e-1 8.997532441727598e-1
      9.110707467531148e-1 9.225306059912379e-1 9.341346125134518e-1 9.458845794693808e-1
      9.577823428152708e-1 9.698297616008473e-1 9.820287182598078e-1 9.943811189039511e-1
      1.006888893621005e0 1.019553996776221e0 1.032378407317730e0 1.045364129085773e0
      1.058513191125797e0 1.071827648005494e0 1.085309580135845e0 1.098961094096169e0
      1.112784322963299e0 1.126781426644872e0 1.140954592216811e0 1.155306034265075e0
      1.169837995231680e0 1.184552745765094e0 1.199452585075027e0 1.214539841291681e0
      1.229816871829539e0 1.245286063755701e0 1.260949834162878e0 1.276810630547069e0
      1.292870931189970e0 1.309133245546240e0 1.325600114635576e0 1.342274111439778e0
      1.359157841304773e0 1.376253942347697e0 1.393565085869126e0 1.411093976770450e0
      1.428843353976537e0 1.446815990863690e0 1.465014695692983e0 1.483442312049075e0
      1.502101719284510e0 1.520995832969633e0 1.540127605348150e0 1.559500025798414e0
      1.579116121300539e0 1.598978956909351e0 1.619091636233328e0 1.639457301919537e0
      1.660079136144670e0 1.680960361112286e0 1.702104239556263e0 1.723514075250629e0
      1.745193213525772e0 1.767145041791148e0 1.789372990064592e0 1.811880531508239e0
      1.834671182971233e0 1.857748505539237e0 1.881116105090847e0 1.904777632861041e0
      1.928736786011666e0 1.952997308209151e0 1.977562990209451e0 2.002437670450352e0
      2.027625235651255e0 2.053129621420460e0 2.078954812870137e0 2.105104845238994e0
      2.131583804522786e0 2.158395828112780e0 2.185545105442202e0 2.213035878640876e0
      2.240872443198047e0 2.269059148633555e0 2.297600399177478e0 2.326500654458273e0
      2.355764430199629e0 2.385396298926048e0 2.415400890677295e0 2.445782893731888e0
      2.476547055339605e0 2.507698182463293e0 2.539241142529947e0 2.571180864191243e0
      2.603522338093682e0 2.636270617658350e0 2.669430819870563e0 2.703008126079383e0
      2.737007782807212e0 2.771435102569594e0 2.806295464705277e0 2.841594316216772e0
      2.877337172621451e0 2.913529618813333e0 2.950177309935783e0 2.987285972265087e0
      3.024861404105238e0 3.062909476693914e0 3.101436135119856e0 3.140447399251837e0
      3.179949364679235e0 3.219948203664522e0 3.260450166107672e0 3.301461580522708e0
      3.342988855026583e0 3.385038478340413e0 3.427617020803399e0 3.470731135399431e0
      3.514387558796622e0 3.558593112399957e0 3.603354703417113e0 3.648679325937759e0
      3.694574062026386e0 3.741046082828866e0 3.788102649693013e0 3.835751115303123e0
      3.883998924828895e0 3.932853617088736e0 3.982322825727692e0 4.032414280410274e0
      4.083135808028174e0 4.134495333923282e0 4.186500883126020e0 4.239160581609240e0
      4.292482657557985e0 4.346475442655088e0 4.401147373383079e0 4.456506992342374e0
      4.512562949586046e0 4.569324003971481e0 4.626799024528891e0 4.684996991847179e0
      4.743926999477151e0 4.803598255352378e0 4.864020083228009e0 4.925201924137562e0
      4.987153337868162e0 5.049884004454255e0 5.113403725690103e0 5.177722426661401e0
      5.242850157296014e0 5.308797093934365e0 5.375573540919485e0 5.443189932207054e0
      5.511656832995794e0 5.580984941378235e0 5.651185090012367e0 5.722268247814250e0
      5.794245521671888e0 5.867128158180781e0 5.940927545401146e0 6.015655214637389e0
      6.091322842239878e0 6.167942251429346e0 6.245525414144387e0 6.324084452911999e0
      6.403631642741827e0 6.484179413044136e0 6.565740349571886e0 6.648327196387370e0
      6.731952857853406e0 6.816630400649744e0 6.902373055814739e0 6.989194220812681e0
      7.077107461627262e0 7.166126514881197e0 7.256265289982681e0 7.347537871298723e0
      7.439958520355826e0 7.533541678068459e0 7.628301966995386e0 7.724254193624559e0
      7.821413350686615e0 7.919794619497492e0 8.019413372330627e0 8.120285174818797e0
      8.222425788386381e0 8.325851172712071e0 8.430577488222557e0 8.536621098617736e0
      8.643998573427451e0 8.752726690600616e0 8.862822439126761e0 8.974303021690556e0
      9.087185857359870e0 9.201488584307404e0 9.317229062566806e0 9.434425376823306e0
      9.553095839239401e0 9.673258992316319e0 9.794933611791171e0 9.918138709570810e0
      1.004289353670245e1 1.016921758638160e1 1.029713059699808e1 1.042665255522000e1
      1.055780369911685e1 1.069060452132174e1 1.082507577223326e1 1.096123846325801e1
      1.109911387009343e1 1.123872353605237e1 1.138008927542921e1 1.152323317690828e1
      1.166817760701546e1 1.181494521361281e1 1.196355892943748e1 1.211404197568495e1
      1.226641786563730e1 1.242071040833741e1 1.257694371230892e1 1.273514218932348e1
      1.289533055821498e1 1.305753384874194e1 1.322177740549855e1 1.338808689187466e1
      1.355648829406590e1 1.372700792513400e1 1.389967242911819e1 1.407450878519856e1
      1.425154431191140e1 1.443080667141797e1 1.461232387382668e1 1.479612428156966e1
      1.498223661383460e1 1.517068995105203e1 1.536151373943931e1 1.555473779560166e1
      1.575039231119089e1 1.594850785762320e1 1.614911539085574e1 1.635224625622371e1
      1.655793219333816e1 1.676620534104516e1 1.697709824244784e1 1.719064384999105e1
      1.740687553061046e1 1.762582707094611e1 1.784753268262160e1 1.807202700758986e1
      1.829934512354585e1 1.852952254940770e1 1.876259525086654e1 1.899859964600609e1
      1.923757261099331e1 1.947955148584011e1 1.972457408023803e1 1.997267867946598e1
      2.022390405037228e1 2.047828944743236e1 2.073587461888195e1 2.099669981292821e1
      2.126080578403840e1 2.152823379930775e1 2.179902564490781e1 2.207322363261532e1
      2.235087060642374e1 2.263200994923765e1 2.291668558965128e1 2.320494200881269e1
      2.349682424737375e1 2.379237791252813e1 2.409164918513735e1 2.439468482694655e1
      2.470153218789137e1 2.501223921349616e1 2.532685445236586e1 2.564542706377167e1
      2.596800682533217e1 2.629464414079151e1 2.662539004789466e1 2.696029622636257e1
      2.729941500596706e1 2.764279937470726e1 2.799050298708952e1 2.834258017251059e1
      2.869908594374703e1 2.906007600555099e1 2.942560676335395e1 2.979573533208059e1
      3.017051954507271e1 3.055001796312615e1 3.093428988364087e1 3.132339534988617e1
      3.171739516038287e1 3.211635087840287e1 3.252032484158885e1 3.292938017169450e1
      3.334358078444726e1 3.376299139953570e1 3.418767755072159e1 3.461770559608015e1
      3.505314272836844e1 3.549405698552413e1 3.594051726129709e1 3.639259331601362e1
      3.685035578747708e1 3.731387620200504e1 3.778322698560518e1 3.825848147529244e1
      3.873971393054763e1 3.922699954492104e1 3.972041445778136e1 4.022003576621244e1
      4.072594153706038e1 4.123821081913096e1 4.175692365554183e1 4.228216109622909e1
      4.281400521061127e1 4.335253910041346e1 4.389784691265143e1 4.445001385278037e1
      4.500912619800815e1 4.557527131077605e1 4.614853765240997e1 4.672901479694191e1
      4.731679344510680e1 4.791196543851433e1 4.851462377399920e1 4.912486261815261e1
      4.974277732203532e1 5.036846443607708e1 5.100202172516251e1 5.164354818390680e1
      5.229314405212454e1 5.295091083049157e1 5.361695129640532e1 5.429136952004376e1
      5.497427088062627e1 5.566576208288000e1 5.636595117371194e1 5.707494755909220e1
      5.779286202114855e1 5.851980673547609e1 5.925589528866563e1 6.000124269605098e1
      6.075596541968106e1 6.152018138651703e1 6.229401000685833e1 6.307757219300146e1
      6.387099037813194e1 6.467438853545556e1 6.548789219756902e1 6.631162847607438e1