<UPF version="2.0.1">
  <PP_INFO>
Generated using "atomic" code by A. Dal Corso  v.6.3MaX
Author: ADC
Generation date:  4Sep2018
Pseudopotential type: USPP
Element:  F
Functional: PBE
    Suggested minimum cutoff for wavefunctions:  49. Ry
    Suggested minimum cutoff for charge density: 316. Ry
    The Pseudo was generated with a Fully-Relativistic Calculation
    Local Potential by smoothing AE potential with Bessel fncs, cutoff radius:   0.9000
    Pseudopotential contains additional information for spin-orbit calculations.
    Valence configuration:
    nl pn  l   occ       Rcut    Rcut US       E pseu
    2S  1  0  2.00      1.000      1.300    -2.197255
    2P  2  1  2.00      0.900      1.400    -0.819497
    2P  2  1  3.00      0.900      1.400    -0.814825
    Generation configuration:
    2S  1  0  2.00      1.000      1.300    -2.197254
    2S  1  0  0.00      1.000      1.300     0.400000
    2P  2  1  2.00      0.900      1.400    -0.819497
    2P  2  1  3.00      0.900      1.400    -0.814821
    2P  2  1  0.00      0.900      1.400     0.150000
    2P  2  1  0.00      0.900      1.400     0.150000
    Pseudization used: troullier-martins

    <PP_INPUTFILE>
 &amp;input
   title='F',
   zed=9.,
   rel=2,
   config='[He] 2s2 2p5',
   iswitch=3,
   dft='PBE'
 /
 &amp;inputp
   lpaw=.false.,
   use_xsd=.FALSE.,
   pseudotype=3,
   file_pseudopw='F.rel-pbe-n-rrkjus_psl.1.0.0.UPF',
   author='ADC',
   lloc=-1,
   rcloc=0.9
   which_augfun='PSQ',
   rmatch_augfun_nc=.true.,
   nlcc=.true.,
   new_core_ps=.true.,
   rcore=0.7,
   tm=.true.
 /
4
2S  1  0  2.00  0.00  1.00  1.30  0.0
2S  1  0  0.00  0.40  1.00  1.30  0.0
2P  2  1  5.00  0.00  0.90  1.40  0.0
2P  2  1  0.00  0.15  0.90  1.40  0.0
</PP_INPUTFILE>
  </PP_INFO>
  <!--
 END OF HUMAN READABLE SECTION 
-->
  <PP_HEADER generated="Generated using &quot;atomic&quot; code by A. Dal Corso  v.6.3MaX" author="ADC" date=" 4Sep2018" comment="" element=" F" pseudo_type="USPP" relativistic="full" is_ultrasoft="true" is_paw="false" is_coulomb="false" has_so="true" has_wfc="false" has_gipaw="false" paw_as_gipaw="false" core_correction="true" functional="PBE" z_valence="7.000000000000e0" total_psenergy="-4.842122332580e1" wfc_cutoff="4.921612186626e1" rho_cutoff="3.164966739920e2" l_max="1" l_max_rho="2" l_local="-1" mesh_size="1105" number_of_wfc="3" number_of_proj="6"/>
  <PP_MESH dx="1.250000000000e-2" mesh="1105" xmin="-7.000000000000e0" rmax="1.000000000000e2" zmesh="9.000000000000e0">
    <PP_R>
      1.013202183949463e-4 1.025946698521136e-4 1.038851519351758e-4 1.051918662845838e-4
      1.065150170771133e-4 1.078548110577677e-4 1.092114575720821e-4 1.105851685988346e-4
      1.119761587831678e-4 1.133846454701283e-4 1.148108487386263e-4 1.162549914358243e-4
      1.177172992119567e-4 1.191980005555885e-4 1.206973268293176e-4 1.222155123059242e-4
      1.237527942049781e-4 1.253094127299036e-4 1.268856111055120e-4 1.284816356160064e-4
      1.300977356434638e-4 1.317341637068014e-4 1.333911755012334e-4 1.350690299382239e-4
      1.367679891859424e-4 1.384883187102277e-4 1.402302873160683e-4 1.419941671896027e-4
      1.437802339406498e-4 1.455887666457733e-4 1.474200478918879e-4 1.492743638204141e-4
      1.511520041719882e-4 1.530532623317352e-4 1.549784353751110e-4 1.569278241143202e-4
      1.589017331453193e-4 1.609004708954106e-4 1.629243496714337e-4 1.649736857085652e-4
      1.670487992197302e-4 1.691500144456368e-4 1.712776597054389e-4 1.734320674480369e-4
      1.756135743040241e-4 1.778225211382849e-4 1.800592531032563e-4 1.823241196928585e-4
      1.846174747971038e-4 1.869396767573934e-4 1.892910884225082e-4 1.916720772053047e-4
      1.940830151401244e-4 1.965242789409245e-4 1.989962500601411e-4 2.014993147482906e-4
      2.040338641143230e-4 2.066002941867334e-4 2.091990059754419e-4 2.118304055344529e-4
      2.144949040253010e-4 2.171929177812963e-4 2.199248683725774e-4 2.226911826719821e-4
      2.254922929217482e-4 2.283286368010510e-4 2.312006574943922e-4 2.341088037608482e-4
      2.370535300041898e-4 2.400352963438838e-4 2.430545686869872e-4 2.461118188009463e-4
      2.492075243873115e-4 2.523421691563785e-4 2.555162429027707e-4 2.587302415819682e-4
      2.619846673878037e-4 2.652800288309304e-4 2.686168408182782e-4 2.719956247335092e-4
      2.754169085184843e-4 2.788812267557554e-4 2.823891207520954e-4 2.859411386230777e-4
      2.895378353787220e-4 2.931797730102135e-4 2.968675205777167e-4 3.006016542992918e-4
      3.043827576409298e-4 3.082114214077210e-4 3.120882438361681e-4 3.160138306876631e-4
      3.199887953431382e-4 3.240137588989076e-4 3.280893502637162e-4 3.322162062570067e-4
      3.363949717084239e-4 3.406262995585714e-4 3.449108509610343e-4 3.492492953856867e-4
      3.536423107232963e-4 3.580905833914474e-4 3.625948084417943e-4 3.671556896686647e-4
      3.717739397190302e-4 3.764502802038568e-4 3.811854418108594e-4 3.859801644186726e-4
      3.908351972124587e-4 3.957512988009700e-4 4.007292373350812e-4 4.057697906278159e-4
      4.108737462758813e-4 4.160419017827311e-4 4.212750646831786e-4 4.265740526695737e-4
      4.319396937195700e-4 4.373728262254981e-4 4.428742991253656e-4 4.484449720355065e-4
      4.540857153848963e-4 4.597974105511597e-4 4.655809499982865e-4 4.714372374160822e-4
      4.773671878613710e-4 4.833717279009743e-4 4.894517957564895e-4 4.956083414508891e-4
      5.018423269569630e-4 5.081547263476303e-4 5.145465259481384e-4 5.210187244901791e-4
      5.275723332679419e-4 5.342083762961317e-4 5.409278904699737e-4 5.477319257272280e-4
      5.546215452122464e-4 5.615978254420905e-4 5.686618564747390e-4 5.758147420794139e-4
      5.830575999090427e-4 5.903915616748972e-4 5.978177733234245e-4 6.053373952153028e-4
      6.129516023067523e-4 6.206615843331222e-4 6.284685459947899e-4 6.363737071453983e-4
      6.443783029824601e-4 6.524835842403613e-4 6.606908173857883e-4 6.690012848156177e-4
      6.774162850572931e-4 6.859371329717224e-4 6.945651599587291e-4 7.033017141650830e-4
      7.121481606951536e-4 7.211058818242097e-4 7.301762772144015e-4 7.393607641334637e-4
      7.486607776761630e-4 7.580777709885364e-4 7.676132154949481e-4 7.772686011280013e-4
      7.870454365613472e-4 7.969452494454110e-4 8.069695866460989e-4 8.171200144864930e-4
      8.273981189915929e-4 8.378055061361419e-4 8.483438020955512e-4 8.590146535000079e-4
      8.698197276917528e-4 8.807607129856105e-4 8.918393189327956e-4 9.030572765880235e-4
      9.144163387800033e-4 9.259182803853120e-4 9.375648986057257e-4 9.493580132490385e-4
      9.612994670134038e-4 9.733911257752698e-4 9.856348788809177e-4 9.980326394416796e-4
      1.010586344632869e-3 1.023297955996460e-3 1.036169459747592e-3 1.049202867084913e-3
      1.062400214504834e-3 1.075763564119744e-3 1.089295003980203e-3 1.102996648401223e-3
      1.116870638292621e-3 1.130919141493541e-3 1.145144353111194e-3 1.159548495863834e-3
      1.174133820428073e-3 1.188902605790547e-3 1.203857159604017e-3 1.218999818547943e-3
      1.234332948693589e-3 1.249858945873741e-3 1.265580236057042e-3 1.281499275727069e-3
      1.297618552266161e-3 1.313940584344069e-3 1.330467922311513e-3 1.347203148598678e-3
      1.364148878118715e-3 1.381307758676344e-3 1.398682471381556e-3 1.416275731068563e-3
      1.434090286719986e-3 1.452128921896387e-3 1.470394455171216e-3 1.488889740571203e-3
      1.507617668022326e-3 1.526581163801349e-3 1.545783190993069e-3 1.565226749953304e-3
      1.584914878777695e-3 1.604850653776431e-3 1.625037189954914e-3 1.645477641500489e-3
      1.666175202275302e-3 1.687133106315327e-3 1.708354628335715e-3 1.729843084242455e-3
      1.751601831650498e-3 1.773634270408403e-3 1.795943843129542e-3 1.818534035730048e-3
      1.841408377973472e-3 1.864570444022329e-3 1.888023852996565e-3 1.911772269539043e-3
      1.935819404388168e-3 1.960169014957685e-3 1.984824905923782e-3 2.009790929819590e-3
      2.035070987637131e-3 2.060669029436876e-3 2.086589054964935e-3 2.112835114278028e-3
      2.139411308376325e-3 2.166321789844222e-3 2.193570763499198e-3 2.221162487048825e-3
      2.249101271756043e-3 2.277391483112806e-3 2.306037541522194e-3 2.335043922989115e-3
      2.364415159819686e-3 2.394155841329419e-3 2.424270614560308e-3 2.454764185006938e-3
      2.485641317351734e-3 2.516906836209442e-3 2.548565626880992e-3 2.580622636116842e-3
      2.613082872889900e-3 2.645951409178209e-3 2.679233380757430e-3 2.712933988003337e-3
      2.747058496704378e-3 2.781612238884461e-3 2.816600613636105e-3 2.852029087964048e-3
      2.887903197639483e-3 2.924228548065035e-3 2.961010815150610e-3 2.998255746200276e-3
      3.035969160810286e-3 3.074156951778397e-3 3.112825086024647e-3 3.151979605523678e-3
      3.191626628248825e-3 3.231772349128053e-3 3.272423041011921e-3 3.313585055653745e-3
      3.355264824702056e-3 3.397468860705566e-3 3.440203758130766e-3 3.483476194392321e-3
      3.527292930896439e-3 3.571660814097341e-3 3.616586776567048e-3 3.662077838078597e-3
      3.708141106702898e-3 3.754783779919395e-3 3.802013145740670e-3 3.849836583851225e-3
      3.898261566760560e-3 3.947295660970774e-3 3.996946528158852e-3 4.047221926373804e-3
      4.098129711248891e-3 4.149677837229069e-3 4.201874358813898e-3 4.254727431816073e-3
      4.308245314635778e-3 4.362436369551092e-3 4.417309064024591e-3 4.472871972026428e-3
      4.529133775374025e-3 4.586103265088616e-3 4.643789342768879e-3 4.702201021981812e-3
      4.761347429671131e-3 4.821237807583375e-3 4.881881513711935e-3 4.943288023759280e-3
      5.005466932617535e-3 5.068427955867712e-3 5.132180931297792e-3 5.196735820439887e-3
      5.262102710126770e-3 5.328291814067941e-3 5.395313474445552e-3 5.463178163530397e-3
      5.531896485318216e-3 5.601479177186598e-3 5.671937111572713e-3 5.743281297672157e-3
      5.815522883159153e-3 5.888673155928423e-3 5.962743545858904e-3 6.037745626599721e-3
      6.113691117378584e-3 6.190591884832932e-3 6.268459944864151e-3 6.347307464515033e-3
      6.427146763870944e-3 6.507990317984840e-3 6.589850758826525e-3 6.672740877256439e-3
      6.756673625024218e-3 6.841662116792470e-3 6.927719632185941e-3 7.014859617866486e-3
      7.103095689634174e-3 7.192441634554728e-3 7.282911413113818e-3 7.374519161398405e-3
      7.467279193305529e-3 7.561206002778911e-3 7.656314266073620e-3 7.752618844049296e-3
      7.850134784492181e-3 7.948877324466357e-3 8.048861892694605e-3 8.150104111969126e-3
      8.252619801592655e-3 8.356424979850271e-3 8.461535866512259e-3 8.567968885368524e-3
      8.675740666794795e-3 8.784868050351189e-3 8.895368087413399e-3 9.007258043837027e-3
      9.120555402655423e-3 9.235277866811396e-3 9.351443361923378e-3 9.469070039086320e-3
      9.588176277707833e-3 9.708780688380042e-3 9.830902115787479e-3 9.954559641651635e-3
      1.007977258771251e-2 1.020656051874765e-2 1.033494324562928e-2 1.046494082841963e-2
      1.059657357950552e-2 1.072986206677210e-2 1.086482711681667e-2 1.100148981820292e-2
      1.113987152475597e-2 1.127999385889901e-2 1.142187871503183e-2 1.156554826295185e-2
      1.171102495131826e-2 1.185833151115958e-2 1.200749095942548e-2 1.215852660258322e-2
      1.231146204025933e-2 1.246632116892708e-2 1.262312818564042e-2 1.278190759181471e-2
      1.294268419705522e-2 1.310548312303362e-2 1.327032980741329e-2 1.343725000782408e-2
      1.360626980588688e-2 1.377741561128903e-2 1.395071416591081e-2 1.412619254800395e-2
      1.430387817642269e-2 1.448379881490797e-2 1.466598257642559e-2 1.485045792755895e-2
      1.503725369295697e-2 1.522639905983805e-2 1.541792358255059e-2 1.561185718719091e-2
      1.580823017627930e-2 1.600707323349481e-2 1.620841742846971e-2 1.641229422164410e-2
      1.661873546918168e-2 1.682777342794741e-2 1.703944076054761e-2 1.725377054043367e-2
      1.747079625706974e-2 1.769055182116559e-2 1.791307156997521e-2 1.813839027266205e-2
      1.836654313573184e-2 1.859756580853362e-2 1.883149438883002e-2 1.906836542843765e-2
      1.930821593893835e-2 1.955108339746239e-2 1.979700575254428e-2 2.004602143005232e-2
      2.029816933919275e-2 2.055348887858936e-2 2.081201994243967e-2 2.107380292674837e-2
      2.133887873563936e-2 2.160728878774707e-2 2.187907502268823e-2 2.215427990761502e-2
      2.243294644385061e-2 2.271511817360823e-2 2.300083918679475e-2 2.329015412789976e-2
      2.358310820297145e-2 2.387974718668007e-2 2.418011742947034e-2 2.448426586480378e-2
      2.479224001649220e-2 2.510408800612343e-2 2.541985856058028e-2 2.573960101965432e-2
      2.606336534375531e-2 2.639120212171757e-2 2.672316257870468e-2 2.705929858421342e-2
      2.739966266017851e-2 2.774430798917931e-2 2.809328842274961e-2 2.844665848979223e-2
      2.880447340509907e-2 2.916678907797860e-2 2.953366212099186e-2 2.990514985879821e-2
      3.028131033711252e-2 3.066220233177480e-2 3.104788535793416e-2 3.143841967934812e-2
      3.183386631779890e-2 3.223428706262838e-2 3.263974448039255e-2 3.305030192463786e-2
      3.346602354580026e-2 3.388697430122880e-2 3.431321996533554e-2 3.474482713987265e-2
      3.518186326433926e-2 3.562439662651898e-2 3.607249637314997e-2 3.652623252072935e-2
      3.698567596645330e-2 3.745089849929494e-2 3.792197281122155e-2 3.839897250855273e-2
      3.888197212346172e-2 3.937104712562098e-2 3.986627393399464e-2 4.036772992877905e-2
      4.087549346349359e-2 4.138964387722367e-2 4.191026150701745e-2 4.243742770043879e-2
      4.297122482827795e-2 4.351173629742211e-2 4.405904656388810e-2 4.461324114601853e-2
      4.517440663784437e-2 4.574263072261542e-2 4.631800218650093e-2 4.690061093246284e-2
      4.749054799430298e-2 4.808790555088750e-2 4.869277694054995e-2 4.930525667567554e-2
      4.992544045746908e-2 5.055342519090820e-2 5.118930899988512e-2 5.183319124253874e-2
      5.248517252677941e-2 5.314535472600936e-2 5.381384099504030e-2 5.449073578621181e-2
      5.517614486571221e-2 5.587017533010455e-2 5.657293562306103e-2 5.728453555230715e-2
      5.800508630677959e-2 5.873470047399975e-2 5.947349205766558e-2 6.022157649546525e-2
      6.097907067711406e-2 6.174609296261908e-2 6.252276320077290e-2 6.330920274788033e-2
      6.410553448672075e-2 6.491188284574845e-2 6.572837381853505e-2 6.655513498345620e-2
      6.739229552362593e-2 6.823998624708199e-2 6.909833960722449e-2 6.996748972351226e-2
      7.084757240241930e-2 7.173872515865467e-2 7.264108723664970e-2 7.355479963231492e-2
      7.448000511507108e-2 7.541684825015721e-2 7.636547542121913e-2 7.732603485318245e-2
      7.829867663541262e-2 7.928355274516699e-2 8.028081707134140e-2 8.129062543851575e-2
      8.231313563130199e-2 8.334850741899801e-2 8.439690258055210e-2 8.545848492984122e-2
      8.653342034126721e-2 8.762187677567519e-2 8.872402430659749e-2 8.984003514682810e-2
      9.097008367533139e-2 9.211434646448893e-2 9.327300230768971e-2 9.444623224726650e-2
      9.563421960278424e-2 9.683714999968428e-2 9.805521139828837e-2 9.928859412316843e-2
      1.005374908928844e-1 1.018020968500976e-1 1.030826095920615e-1 1.043792292014973e-1
      1.056921582778571e-1 1.070216019689802e-1 1.083677680031481e-1 1.097308667215425e-1
      1.111111111111111e-1 1.125087168378483e-1 1.139239022804921e-1 1.153568885646473e-1
      1.168078995973361e-1 1.182771621019844e-1 1.197649056538480e-1 1.212713627158835e-1
      1.227967686750720e-1 1.243413618791979e-1 1.259053836740918e-1 1.274890784413414e-1
      1.290926936364759e-1 1.307164798276323e-1 1.323606907347066e-1 1.340255832689978e-1
      1.357114175733522e-1 1.374184570628095e-1 1.391469684657628e-1 1.408972218656356e-1
      1.426694907430824e-1 1.444640520187213e-1 1.462811860964024e-1 1.481211769070226e-1
      1.499843119528893e-1 1.518708823526440e-1 1.537811828867502e-1 1.557155120435526e-1
      1.576741720659176e-1 1.596574689984584e-1 1.616657127353557e-1 1.636992170687796e-1
      1.657582997379190e-1 1.678432824786304e-1 1.699544910737089e-1 1.720922554037926e-1
      1.742569094989077e-1 1.764487915906604e-1 1.786682441650871e-1 1.809156140161679e-1
      1.831912523000142e-1 1.854955145897381e-1 1.878287609310102e-1 1.901913558983184e-1
      1.925836686519329e-1 1.950060729955887e-1 1.974589474348932e-1 1.999426752364677e-1
      2.024576444878345e-1 2.050042481580557e-1 2.075828841591358e-1 2.101939554081967e-1
      2.128378698904330e-1 2.155150407228617e-1 2.182258862188720e-1 2.209708299535880e-1
      2.237503008300530e-1 2.265647331462462e-1 2.294145666629431e-1 2.323002466724286e-1
      2.352222240680750e-1 2.381809554147955e-1 2.411769030203826e-1 2.442105350077448e-1
      2.472823253880521e-1 2.503927541348010e-1 2.535423072588116e-1 2.567314768841672e-1
      2.599607613251103e-1 2.632306651639047e-1 2.665416993296776e-1 2.698943811782543e-1
      2.732892345729945e-1 2.767267899666480e-1 2.802075844842389e-1 2.837321620069919e-1
      2.873010732573163e-1 2.909148758848557e-1 2.945741345536231e-1 2.982794210302302e-1
      3.020313142732272e-1 3.058304005235675e-1 3.096772733962057e-1 3.135725339728555e-1
      3.175167908959073e-1 3.215106604635290e-1 3.255547667259672e-1 3.296497415830521e-1
      3.337962248829369e-1 3.379948645220740e-1 3.422463165464479e-1 3.465512452540884e-1
      3.509103232988632e-1 3.553242317955860e-1 3.597936604264404e-1 3.643193075487415e-1
      3.689018803040613e-1 3.735420947287145e-1 3.782406758656464e-1 3.829983578777197e-1
      3.878158841624268e-1 3.926940074680526e-1 3.976334900112867e-1 4.026351035963268e-1
      4.076996297354719e-1 4.128278597712337e-1 4.180205949999905e-1 4.232786467971847e-1
      4.286028367441082e-1 4.339939967562728e-1 4.394529692133975e-1 4.449806070910365e-1
      4.505777740938529e-1 4.562453447905790e-1 4.619842047506679e-1 4.677952506826622e-1
      4.736793905743136e-1 4.796375438344494e-1 4.856706414366396e-1 4.917796260646598e-1
      4.979654522597849e-1 5.042290865699453e-1 5.105715077007433e-1 5.169937066683854e-1
      5.234966869545272e-1 5.300814646630670e-1 5.367490686789203e-1 5.435005408287785e-1
      5.503369360439015e-1 5.572593225249514e-1 5.642687819088979e-1 5.713664094380324e-1
      5.785533141310944e-1 5.858306189565655e-1 5.931994610081310e-1 6.006609916823519e-1
      6.082163768585783e-1 6.158667970811138e-1 6.236134477436838e-1 6.314575392762164e-1
      6.394002973339701e-1 6.474429629890532e-1 6.555867929243353e-1 6.638330596298135e-1
      6.721830516014389e-1 6.806380735424429e-1 6.891994465672080e-1 6.978685084076851e-1
      7.066466136224254e-1 7.155351338082293e-1 7.245354578144569e-1 7.336489919600483e-1
      7.428771602532525e-1 7.522214046141414e-1 7.616831850999092e-1 7.712639801330039e-1
      7.809652867321445e-1 7.907886207462219e-1 8.007355170911627e-1 8.108075299897596e-1
      8.210062332145167e-1 8.313332203335651e-1 8.417901049596498e-1 8.523785210022698e-1
      8.631001229229753e-1 8.739565859938768e-1 8.849496065594201e-1 8.960809023014306e-1
      9.073522125075163e-1 9.187652983428304e-1 9.303219431252517e-1 9.420239526040424e-1
      9.538731552419884e-1 9.658714025011113e-1 9.780205691319569e-1 9.903225534665264e-1
      1.002779277714903e0 1.015392688265592e0 1.028164755989654e0 1.041097476548660e0
      1.054192870706503e0 1.067452984645168e0 1.080879890284432e0 1.094475685605620e0
      1.108242494979414e0 1.122182469497784e0 1.136297787310112e0 1.150590653963522e0
      1.165063302747508e0 1.179717995042890e0 1.194557020675151e0 1.209582698272239e0
      1.224797375626845e0 1.240203430063263e0 1.255803268808843e0 1.271599329370125e0
      1.287594079913711e0 1.303790019651913e0 1.320189679233266e0 1.336795621137949e0
      1.353610440078164e0 1.370636763403585e0 1.387877251511868e0 1.405334598264358e0
      1.423011531407005e0 1.440910812996570e0 1.459035239832225e0 1.477387643892532e0
      1.495970892777968e0 1.514787890158974e0 1.533841576229677e0 1.553134928167294e0
      1.572670960597312e0 1.592452726064550e0 1.612483315510103e0 1.632765858754327e0
      1.653303524985872e0 1.674099523256866e0 1.695157102984353e0 1.716479554458003e0
      1.738070209354241e0 1.759932441256826e0 1.782069666183964e0 1.804485343122095e0
      1.827182974566340e0 1.850166107067794e0 1.873438331787672e0 1.897003285058429e0
      1.920864648951963e0 1.945026151854921e0 1.969491569051294e0 1.994264723312295e0
      2.019349485493674e0 2.044749775140564e0 2.070469561099891e0 2.096512862140543e0
      2.122883747581296e0 2.149586337926646e0 2.176624805510669e0 2.204003375148926e0
      2.231726324798630e0 2.259797986227070e0 2.288222745688449e0 2.317005044609270e0
      2.346149380282292e0 2.375660306569261e0 2.405542434612453e0 2.435800433555164e0
      2.466439031271296e0 2.497463015104069e0 2.528877232614081e0 2.560686592336733e0
      2.592896064549191e0 2.625510682047028e0 2.658535540930572e0 2.691975801401220e0
      2.725836688567708e0 2.760123493262538e0 2.794841572868711e0 2.829996352156789e0
      2.865593324132563e0 2.901638050895333e0 2.938136164506978e0 2.975093367872018e0
      3.012515435628656e0 3.050408215051122e0 3.088777626963299e0 3.127629666663851e0
      3.166970404863035e0 3.206805988631226e0 3.247142642359438e0 3.287986668731887e0
      3.329344449710780e0 3.371222447533551e0 3.413627205722548e0 3.456565350107518e0
      3.500043589860885e0 3.544068718546056e0 3.588647615178969e0 3.633787245302908e0
      3.679494662076924e0 3.725777007377885e0 3.772641512916395e0 3.820095501366803e0
      3.868146387511339e0 3.916801679398727e0 3.966068979517323e0 4.015955985982993e0
      4.066470493742004e0 4.117620395788955e0 4.169413684400111e0 4.221858452382200e0
      4.274962894336904e0 4.328735307941336e0 4.383184095244506e0 4.438317763980215e0
      4.494144928896382e0 4.550674313101089e0 4.607914749425646e0 4.665875181804668e0
      4.724564666673642e0 4.783992374383995e0 4.844167590635945e0 4.905099717929477e0
      4.966798277033429e0 5.029272908473196e0 5.092533374037057e0 5.156589558301442e0
      5.221451470175484e0 5.287129244464856e0 5.353633143455424e0 5.420973558516717e0
      5.489161011725576e0 5.558206157510313e0 5.628119784315407e0 5.698912816287301e0
      5.770596314981277e0 5.843181481089828e0 5.916679656192855e0 5.991102324529730e0
      6.066461114793804e0 6.142767801949387e0 6.220034309071573e0 6.298272709209319e0
      6.377495227271805e0 6.457714241938665e0 6.538942287594162e0 6.621192056285666e0
      6.704476399706895e0 6.788808331205931e0 6.874201027818653e0 6.960667832327657e0
      7.048222255347039e0 7.136877977433550e0 7.226648851224112e0 7.317548903600411e0
      7.409592337880579e0 7.502793536038461e0 7.597167060950913e0 7.692727658673182e0
      7.789490260743095e0 7.887469986514104e0 7.986682145517674e0 8.087142239855527e0
      8.188865966621760e0 8.291869220355657e0 8.396168095525187e0 8.501778889041766e0
      8.608718102806774e0 8.717002446289905e0 8.826648839140148e0 8.937674413829479e0
      9.050096518329793e0 9.163932718823681e0 9.279200802449031e0 9.395918780078444e0
      9.514104889133407e0 9.633777596433879e0 9.754955601083880e0 9.877657837393148e0
      1.000190347783576e1 1.012771193604583e1 1.025510286985088e1 1.038409618434353e1
      1.051471203499157e1 1.064697083078743e1 1.078089323743705e1 1.091650018058890e1
      1.105381284910377e1 1.119285269836546e1 1.133364145363330e1 1.147620111343676e1
      1.162055395301269e1 1.176672252778600e1 1.191472967689384e1 1.206459852675440e1
      1.221635249468040e1 1.237001529253804e1 1.252561093045215e1 1.268316372055767e1
      1.284269828079863e1 1.300423953877466e1 1.316781273563593e1 1.333344343002729e1
      1.350115750208166e1 1.367098115746406e1 1.384294093146616e1 1.401706369315247e1
      1.419337664955878e1 1.437190734994322e1 1.455268369009096e1 1.473573391667296e1
      1.492108663165950e1 1.510877079678946e1 1.529881573809542e1 1.549125115048613e1
      1.568610710238634e1 1.588341404043489e1 1.608320279424235e1 1.628550458120791e1
      1.649035101139740e1 1.669777409248233e1 1.690780623474107e1 1.712048025612321e1
      1.733582938737723e1 1.755388727724305e1 1.777468799770963e1 1.799826604933871e1
      1.822465636665578e1 1.845389432360846e1 1.868601573909394e1 1.892105688255568e1
      1.915905447965048e1 1.940004571798716e1 1.964406825293694e1 1.989116021351741e1
      2.014136020835015e1 2.039470733169333e1 2.065124116955048e1 2.091100180585561e1
      2.117402982873667e1 2.144036633685740e1 2.171005294583900e1 2.198313179476286e1
      2.225964555275465e1 2.253963742565166e1 2.282315116275371e1 2.311023106365896e1
      2.340092198518609e1 2.369526934838289e1 2.399331914562379e1 2.429511794779602e1
      2.460071291157635e1 2.491015178679970e1 2.522348292391979e1 2.554075528156432e1
      2.586201843418470e1 2.618732257980207e1 2.651671854785110e1 2.685025780712186e1
      2.718799247380227e1 2.752997531962115e1 2.787625978009384e1 2.822689996287192e1
      2.858195065619722e1 2.894146733746298e1 2.930550618188214e1 2.967412407126469e1
      3.004737860290589e1 3.042532809858562e1 3.080803161368156e1 3.119554894639661e1
      3.158794064710233e1 3.198526802780037e1 3.238759317170224e1 3.279497894293026e1
      3.320748899634006e1 3.362518778746665e1 3.404814058259606e1 3.447641346896293e1
      3.491007336507713e1 3.534918803117979e1 3.579382607983073e1 3.624405698662982e1
      3.669995110107211e1 3.716157965754056e1 3.762901478643640e1 3.810232952544938e1
      3.858159783097057e1 3.906689458964765e1 3.955829563008657e1 4.005587773469975e1
      4.055971865170321e1 4.106989710726547e1 4.158649281780803e1 4.210958650246172e1
      4.263925989567914e1 4.317559576000543e1 4.371867789901072e1 4.426859117038400e1
      4.482542149919279e1 4.538925589130895e1 4.596018244700320e1 4.653829037471159e1
      4.712367000497384e1 4.771641280454822e1 4.831661139070318e1 4.892435954568877e1
      4.953975223139085e1 5.016288560416839e1 5.079385702987878e1 5.143276509909107e1
      5.207970964249078e1 5.273479174647921e1 5.339811376896771e1 5.406977935537192e1
      5.474989345480632e1 5.543856233648246e1 5.613589360631440e1 5.684199622373158e1
      5.755698051870467e1 5.828095820898450e1 5.901404241755791e1 5.975634769032416e1
      6.050799001399216e1 6.126908683420432e1 6.203975707388733e1 6.282012115183392e1
      6.361030100151910e1 6.441042009015184e1 6.522060343796766e1 6.604097763776314e1
      6.687167087467580e1 6.771281294621423e1 6.856453528253819e1 6.942697096699566e1
      7.030025475691713e1 7.118452310467120e1 7.207991417898656e1 7.298656788653997e1
      7.390462589381798e1 7.483423164925217e1 7.577553040563284e1 7.672866924280604e1
      7.769379709065397e1 7.867106475236660e1 7.966062492800444e1 8.066263223835794e1
      8.167724324910822e1 8.270461649528967e1 8.374491250606237e1 8.479829382979464e1
      8.586492505946110e1 8.694497285836183e1 8.803860598616245e1 8.914599532526433e1
      9.026731390750490e1 9.140273694119362e1 9.255244183848987e1 9.371660824312261e1
      9.489541805846128e1 9.608905547593800e1 9.729770700382733e1 9.852156149638992e1
      9.976081018337982e1
      </PP_R>
    <PP_RAB>
      1.266502729936828e-6 1.282433373151420e-6 1.298564399189697e-6 1.314898328557297e-6
      1.331437713463917e-6 1.348185138222096e-6 1.365143219651026e-6 1.382314607485432e-6
      1.399701984789598e-6 1.417308068376603e-6 1.435135609232829e-6 1.453187392947803e-6
      1.471466240149459e-6 1.489975006944857e-6 1.508716585366470e-6 1.527693903824053e-6
      1.546909927562227e-6 1.566367659123795e-6 1.586070138818900e-6 1.606020445200080e-6
      1.626221695543298e-6 1.646677046335018e-6 1.667389693765418e-6 1.688362874227798e-6
      1.709599864824279e-6 1.731103983877847e-6 1.752878591450853e-6 1.774927089870034e-6
      1.797252924258122e-6 1.819859583072167e-6 1.842750598648599e-6 1.865929547755176e-6
      1.889400052149852e-6 1.913165779146690e-6 1.937230442188887e-6 1.961597801429002e-6
      1.986271664316492e-6 2.011255886192633e-6 2.036554370892921e-6 2.062171071357065e-6
      2.088109990246628e-6 2.114375180570461e-6 2.140970746317987e-6 2.167900843100461e-6
      2.195169678800302e-6 2.222781514228562e-6 2.250740663790704e-6 2.279051496160731e-6
      2.307718434963797e-6 2.336745959467418e-6 2.366138605281353e-6 2.395900965066309e-6
      2.426037689251555e-6 2.456553486761557e-6 2.487453125751764e-6 2.518741434353632e-6
      2.550423301429038e-6 2.582503677334168e-6 2.614987574693024e-6 2.647880069180662e-6
      2.681186300316263e-6 2.714911472266204e-6 2.749060854657218e-6 2.783639783399777e-6
      2.818653661521853e-6 2.854107960013137e-6 2.890008218679902e-6 2.926360047010603e-6
      2.963169125052373e-6 3.000441204298548e-6 3.038182108587340e-6 3.076397735011829e-6
      3.115094054841395e-6 3.154277114454732e-6 3.193953036284634e-6 3.234128019774602e-6
      3.274808342347546e-6 3.316000360386630e-6 3.357710510228477e-6 3.399945309168865e-6
      3.442711356481054e-6 3.486015334446942e-6 3.529864009401192e-6 3.574264232788472e-6
      3.619222942234025e-6 3.664747162627669e-6 3.710844007221459e-6 3.757520678741148e-6
      3.804784470511623e-6 3.852642767596512e-6 3.901103047952101e-6 3.950172883595789e-6
      3.999859941789227e-6 4.050171986236345e-6 4.101116878296453e-6 4.152702578212584e-6
      4.204937146355299e-6 4.257828744482143e-6 4.311385637012929e-6 4.365616192321085e-6
      4.420528884041205e-6 4.476132292393094e-6 4.532435105522429e-6 4.589446120858309e-6
      4.647174246487879e-6 4.705628502548210e-6 4.764818022635743e-6 4.824752055233409e-6
      4.885439965155735e-6 4.946891235012124e-6 5.009115466688515e-6 5.072122382847700e-6
      5.135921828448517e-6 5.200523772284139e-6 5.265938308539734e-6 5.332175658369671e-6
      5.399246171494625e-6 5.467160327818727e-6 5.535928739067071e-6 5.605562150443832e-6
      5.676071442311205e-6 5.747467631889496e-6 5.819761874978583e-6 5.892965467701028e-6
      5.967089848267138e-6 6.042146598762179e-6 6.118147446956120e-6 6.195104268136114e-6
      6.273029086962038e-6 6.351934079345378e-6 6.431831574351730e-6 6.512734056127238e-6