<UPF version="2.0.1">
  <PP_INFO>
Generated using "atomic" code by A. Dal Corso  v.6.2.2
Author: ADC
Generation date:  7May2018
Pseudopotential type: USPP
Element: Fr
Functional: PBE
    Suggested minimum cutoff for wavefunctions:  63. Ry
    Suggested minimum cutoff for charge density: 506. Ry
    The Pseudo was generated with a Scalar-Relativistic Calculation
    Local Potential by smoothing AE potential with Bessel fncs, cutoff radius:   2.2000
    Pseudopotential contains additional information for GIPAW reconstruction.
    Valence configuration:
    nl pn  l   occ       Rcut    Rcut US       E pseu
    6S  1  0  2.00      1.000      2.100    -2.091414
    7S  2  0  1.00      1.000      2.100    -0.159438
    6P  2  1  6.00      1.200      2.100    -0.897226
    5D  3  2 10.00      0.850      1.500    -4.234956
    Generation configuration:
    6S  1  0  2.00      1.000      2.100    -2.091426
    7S  2  0  1.00      1.000      2.100    -0.159442
    6P  2  1  6.00      1.200      2.100    -0.897232
    7P  3  1  0.00      1.200      2.100     6.500000
    5D  3  2 10.00      0.850      1.500    -4.234977
    5D  3  2 -2.00      0.850      1.500    -3.200000
    Pseudization used: troullier-martins

    <PP_INPUTFILE>
 &amp;input
   title='Fr',
   zed=87.,
   rel=1,
   config='[Xe] 4f14.0 5d10.0 6s2.0 6p6.0 6d-2.0 7s1. 7p-1.',
   iswitch=3,
   dft='PBE'
 /
 &amp;inputp
   lpaw=.false.,
   use_xsd=.FALSE.,
   pseudotype=3,
   file_pseudopw='Fr.pbe-spdn-rrkjus_psl.1.0.0.UPF',
   author='ADC',
   lloc=-1,
   rcloc=2.2,
   which_augfun='PSQ',
   rmatch_augfun_nc=.true.,
   nlcc=.true.,
   new_core_ps=.true.,
   rcore=1.2,
   tm=.true.
 /
6
6S  1  0  2.00  0.00  1.00  2.10  0.0
7S  2  0  1.00  0.00  1.00  2.10  0.0
6P  2  1  6.00  0.00  1.20  2.10  0.0
7P  3  1  0.00  6.50  1.20  2.10  0.0
5D  3  2 10.00  0.00  0.85  1.50  0.0
5D  3  2 -2.00 -3.20  0.85  1.50  0.0
</PP_INPUTFILE>
  </PP_INFO>
  <!--
 END OF HUMAN READABLE SECTION 
-->
  <PP_HEADER generated="Generated using &quot;atomic&quot; code by A. Dal Corso  v.6.2.2" author="ADC" date=" 7May2018" comment="" element="Fr" pseudo_type="USPP" relativistic="scalar" is_ultrasoft="true" is_paw="false" is_coulomb="false" has_so="false" has_wfc="false" has_gipaw="true" paw_as_gipaw="false" core_correction="true" functional="PBE" z_valence="1.900000000000e1" total_psenergy="-2.844849993511e2" wfc_cutoff="6.293448538403e1" rho_cutoff="5.060843152250e2" l_max="2" l_max_rho="4" l_local="-1" mesh_size="1287" number_of_wfc="4" number_of_proj="6"/>
  <PP_MESH dx="1.250000000000e-2" mesh="1287" xmin="-7.000000000000e0" rmax="1.000000000000e2" zmesh="8.700000000000e1">
    <PP_R>
      1.048140190292547e-5 1.061324170883934e-5 1.074673985536302e-5 1.088191720185349e-5
      1.101879487004620e-5 1.115739424735527e-5 1.129773699021539e-5 1.143984502746564e-5
      1.158374056377598e-5 1.172944608311672e-5 1.187698435227169e-5 1.202637842439562e-5
      1.217765164261621e-5 1.233082764368157e-5 1.248593036165354e-5 1.264298403164734e-5
      1.280201319361842e-5 1.296304269619692e-5 1.312609770057020e-5 1.329120368441446e-5
      1.345838644587557e-5 1.362767210760015e-5 1.379908712081725e-5 1.397265826947143e-5
      1.414841267440783e-5 1.432637779760977e-5 1.450658144648982e-5 1.468905177823476e-5
      1.487381730420515e-5 1.506090689439034e-5 1.525034978191944e-5 1.544217556762905e-5
      1.563641422468844e-5 1.583309610328295e-5 1.603225193535631e-5 1.623391283941243e-5
      1.643811032537787e-5 1.664487629952524e-5 1.685424306945866e-5 1.706624334916192e-5
      1.728091026411002e-5 1.749827735644519e-5 1.771837859021782e-5 1.794124835669347e-5
      1.816692147972663e-5 1.839543322120189e-5 1.862681928654375e-5 1.886111583029570e-5
      1.909835946176935e-5 1.933858725076485e-5 1.958183673336292e-5 1.982814591779014e-5
      2.007755329035769e-5 2.033009782147495e-5 2.058581897173873e-5 2.084475669809903e-5
      2.110695146010238e-5 2.137244422621380e-5 2.164127648021813e-5 2.191349022770203e-5
      2.218912800261735e-5 2.246823287392721e-5 2.275084845233559e-5 2.303701889710160e-5
      2.332678892293947e-5 2.362020380700528e-5 2.391730939597160e-5 2.421815211319120e-5
      2.452277896595068e-5 2.483123755281557e-5 2.514357607106765e-5 2.545984332423583e-5
      2.578008872972188e-5 2.610436232652192e-5 2.643271478304524e-5 2.676519740503119e-5
      2.710186214356590e-5 2.744276160319969e-5 2.778794905016670e-5 2.813747842070784e-5
      2.849140432949838e-5 2.884978207818159e-5 2.921266766400987e-5 2.958011778859425e-5
      2.995218986676434e-5 3.032894203553933e-5 3.071043316321207e-5 3.109672285854743e-5
      3.148787148009619e-5 3.188394014562630e-5 3.228499074167256e-5 3.269108593320652e-5
      3.310228917342808e-5 3.351866471368008e-5 3.394027761348790e-5 3.436719375072483e-5
      3.479947983190592e-5 3.523720340261084e-5 3.568043285803804e-5 3.612923745369172e-5
      3.658368731620307e-5 3.704385345428766e-5 3.750980776984078e-5 3.798162306917221e-5
      3.845937307438243e-5 3.894313243488174e-5 3.943297673905441e-5 3.992898252606958e-5
      4.043122729784056e-5 4.093978953113481e-5 4.145474868983598e-5 4.197618523736027e-5
      4.250418064922910e-5 4.303881742579978e-5 4.358017910515642e-5 4.412835027616280e-5
      4.468341659167965e-5 4.524546478194808e-5 4.581458266814126e-5 4.639085917608688e-5
      4.697438435016169e-5 4.756524936736135e-5 4.816354655154690e-5 4.876936938787058e-5
      4.938281253738321e-5 5.000397185182491e-5 5.063294438860235e-5 5.126982842595405e-5
      5.191472347830651e-5 5.256773031182384e-5 5.322895096015224e-5 5.389848874036334e-5
      5.457644826909745e-5 5.526293547891017e-5 5.595805763482487e-5 5.666192335109255e-5
      5.737464260816342e-5 5.809632676987142e-5 5.882708860083508e-5 5.956704228407730e-5
      6.031630343886648e-5 6.107498913878249e-5 6.184321793000944e-5 6.262110984985892e-5
      6.340878644552611e-5 6.420637079308161e-5 6.501398751670240e-5 6.583176280814465e-5
      6.665982444646139e-5 6.749830181796841e-5 6.834732593646086e-5 6.920702946368458e-5
      7.007754673006481e-5 7.095901375569541e-5 7.185156827159266e-5 7.275534974121546e-5
      7.367049938225728e-5 7.459716018871134e-5 7.553547695321393e-5 7.648559628966867e-5
      7.744766665615478e-5 7.842183837812446e-5 7.940826367189116e-5 8.040709666841394e-5
      8.141849343738075e-5 8.244261201159425e-5 8.347961241166544e-5 8.452965667101651e-5
      8.559290886119930e-5 8.666953511753189e-5 8.775970366505703e-5 8.886358484482839e-5
      8.998135114052612e-5 9.111317720540800e-5 9.225923988959952e-5 9.341971826772657e-5
      9.459479366689692e-5 9.578464969503228e-5 9.698947226955784e-5 9.820944964645225e-5
      9.944477244966247e-5 1.006956337008900e-4 1.019622288497501e-4 1.032447558043117e-4
      1.045434149620210e-4 1.058584092410131e-4 1.071899441118199e-4 1.085382276294737e-4
      1.099034704660173e-4 1.112858859434218e-4 1.126856900669176e-4 1.141031015587473e-4
      1.155383418923400e-4 1.169916353269181e-4 1.184632089425374e-4 1.199532926755690e-4
      1.214621193546282e-4 1.229899247369532e-4 1.245369475452431e-4 1.261034295049596e-4
      1.276896153820955e-4 1.292957530214214e-4 1.309220933852112e-4 1.325688905924554e-4
      1.342364019585684e-4 1.359248880355933e-4 1.376346126529152e-4 1.393658429584839e-4
      1.411188494605567e-4 1.428939060699666e-4 1.446912901429195e-4 1.465112825243342e-4
      1.483541675917227e-4 1.502202332996262e-4 1.521097712246085e-4 1.540230766108141e-4
      1.559604484161027e-4 1.579221893587603e-4 1.599086059648002e-4 1.619200086158590e-4
      1.639567115976926e-4 1.660190331492859e-4 1.681072955125773e-4 1.702218249828092e-4
      1.723629519595140e-4 1.745310109981373e-4 1.767263408623154e-4 1.789492845768057e-4
      1.812001894810861e-4 1.834794072836279e-4 1.857872941168491e-4 1.881242105927635e-4
      1.904905218593248e-4 1.928865976574823e-4 1.953128123789550e-4 1.977695451247286e-4
      2.002571797642933e-4 2.027761049956226e-4 2.053267144059085e-4 2.079094065330611e-4
      2.105245849279791e-4 2.131726582176078e-4 2.158540401687863e-4 2.185691497528994e-4
      2.213184112113440e-4 2.241022541218160e-4 2.269211134654343e-4 2.297754296947061e-4
      2.326656488023493e-4 2.355922223909800e-4 2.385556077436752e-4 2.415562678954257e-4
      2.445946717054848e-4 2.476712939306295e-4 2.507866152993421e-4 2.539411225869247e-4
      2.571353086915586e-4 2.603696727113215e-4 2.636447200221716e-4 2.669609623569147e-4
      2.703189178851622e-4 2.737191112942975e-4 2.771620738714583e-4 2.806483435865521e-4
      2.841784651763150e-4 2.877529902294269e-4 2.913724772727005e-4 2.950374918583498e-4
      2.987486066523604e-4 3.025064015239691e-4 3.063114636362699e-4 3.101643875379596e-4
      3.140657752562364e-4 3.180162363908687e-4 3.220163882094462e-4 3.260668557438287e-4
      3.301682718878096e-4 3.343212774960054e-4 3.385265214839919e-4 3.427846609296978e-4
      3.470963611760747e-4 3.514622959350586e-4 3.558831473928379e-4 3.603596063164471e-4
      3.648923721617006e-4 3.694821531824836e-4 3.741296665414188e-4 3.788356384219238e-4
      3.836008041416791e-4 3.884259082675237e-4 3.933117047317936e-4 3.982589569501267e-4
      4.032684379407475e-4 4.083409304452524e-4 4.134772270509157e-4 4.186781303145314e-4
      4.239444528878161e-4 4.292770176443864e-4 4.346766578083344e-4 4.401442170844216e-4
      4.456805497899081e-4 4.512865209880438e-4 4.569630066232336e-4 4.627108936579063e-4
      4.685310802111060e-4 4.744244756988224e-4 4.803920009760910e-4 4.864345884808773e-4
      4.925531823797723e-4 4.987487387155215e-4 5.050222255564072e-4 5.113746231475119e-4
      5.178069240638830e-4 5.243201333656255e-4 5.309152687549439e-4 5.375933607351607e-4
      5.443554527717350e-4 5.512026014553042e-4 5.581358766667812e-4 5.651563617445239e-4
      5.722651536536086e-4 5.794633631572342e-4 5.867521149902806e-4 5.941325480350508e-4
      6.016058154992228e-4 6.091730850960437e-4 6.168355392267832e-4 6.245943751654885e-4
      6.324508052460605e-4 6.404060570516829e-4 6.484613736066363e-4 6.566180135705205e-4
      6.648772514349252e-4 6.732403777225697e-4 6.817086991889509e-4 6.902835390265282e-4
      6.989662370714710e-4 7.077581500130142e-4 7.166606516054420e-4 7.256751328827399e-4
      7.348030023759491e-4 7.440456863332478e-4 7.534046289428086e-4 7.628812925584556e-4
      7.724771579281581e-4 7.821937244254046e-4 7.920325102834777e-4 8.019950528326856e-4
      8.120829087405703e-4 8.222976542551406e-4 8.326408854511662e-4 8.431142184795648e-4
      8.537192898199299e-4 8.644577565362352e-4 8.753312965357509e-4 8.863416088312267e-4
      8.974904138063582e-4 9.087794534846056e-4 9.202104918013861e-4 9.317853148796923e-4
      9.435057313091816e-4 9.553735724287652e-4 9.673906926127630e-4 9.795589695606537e-4
      9.918803045904653e-4 1.004356622935867e-3 1.016989874046981e-3 1.029782031894997e-3
      1.042735095280604e-3 1.055851088146309e-3 1.069132059892684e-3 1.082580085698583e-3
      1.096197266845398e-3 1.109985731045389e-3 1.123947632774139e-3 1.138085153607199e-3
      1.152400502560963e-3 1.166895916437829e-3 1.181573660175707e-3 1.196436027201916e-3
      1.211485339791544e-3 1.226723949430301e-3 1.242154237181946e-3 1.257778614060333e-3
      1.273599521406137e-3 1.289619431268319e-3 1.305840846790388e-3 1.322266302601522e-3
      1.338898365212610e-3 1.355739633417271e-3 1.372792738697927e-3 1.390060345636974e-3
      1.407545152333126e-3 1.425249890823003e-3 1.443177327508015e-3 1.461330263586616e-3
      1.479711535492003e-3 1.498324015335307e-3 1.517170611354371e-3 1.536254268368167e-3
      1.555577968236928e-3 1.575144730328074e-3 1.594957611987992e-3 1.615019709019749e-3
      1.635334156166824e-3 1.655904127602911e-3 1.676732837427901e-3 1.697823540170079e-3
      1.719179531294657e-3 1.740804147718697e-3 1.762700768332511e-3 1.784872814527621e-3
      1.807323750731352e-3 1.830057084948164e-3 1.853076369307780e-3 1.876385200620211e-3
      1.899987220937777e-3 1.923886118124167e-3 1.948085626430691e-3 1.972589527079757e-3
      1.997401648855691e-3 2.022525868703006e-3 2.047966112332166e-3 2.073726354832998e-3
      2.099810621295802e-3 2.126222987440279e-3 2.152967580252380e-3 2.180048578629142e-3
      2.207470214031658e-3 2.235236771146249e-3 2.263352588553955e-3 2.291822059408450e-3
      2.320649632122477e-3 2.349839811062921e-3 2.379397157254630e-3 2.409326289093078e-3
      2.439631883066013e-3 2.470318674484146e-3 2.501391458221069e-3 2.532855089462460e-3
      2.564714484464711e-3 2.596974621323114e-3 2.629640540749684e-3 2.662717346860792e-3
      2.696210207974687e-3 2.730124357419059e-3 2.764465094348761e-3 2.799237784573802e-3
      2.834447861397777e-3 2.870100826466824e-3 2.906202250629270e-3 2.942757774806093e-3
      2.979773110872317e-3 3.017254042549510e-3 3.055206426309503e-3 3.093636192289470e-3
      3.132549345218536e-3 3.171951965356014e-3 3.211850209441465e-3 3.252250311656701e-3
      3.293158584599886e-3 3.334581420271900e-3 3.376525291075092e-3 3.418996750824606e-3
      3.462002435772440e-3 3.505549065644360e-3 3.549643444689885e-3 3.594292462745447e-3
      3.639503096310959e-3 3.685282409639895e-3 3.731637555843101e-3 3.778575778006485e-3
      3.826104410322755e-3 3.874230879237407e-3 3.922962704609124e-3 3.972307500884765e-3
      4.022272978289143e-3 4.072866944029757e-3 4.124097303516687e-3 4.175972061597833e-3
      4.228499323809682e-3 4.281687297643828e-3 4.335544293829392e-3 4.390078727631598e-3
      4.445299120166684e-3 4.501214099733321e-3 4.557832403160838e-3 4.615162877174331e-3
      4.673214479777005e-3 4.731996281649870e-3 4.791517467569061e-3 4.851787337840983e-3
      4.912815309755480e-3 4.974610919057327e-3 5.037183821436201e-3 5.100543794035400e-3
      5.164700736979560e-3 5.229664674921537e-3 5.295445758608805e-3 5.362054266469524e-3
      5.429500606218561e-3 5.497795316483726e-3 5.566949068452444e-3 5.636972667539154e-3
      5.707877055073675e-3 5.779673310010814e-3 5.852372650661485e-3 5.925986436445565e-3
      6.000526169666854e-3 6.076003497310318e-3 6.152430212861958e-3 6.229818258151577e-3
      6.308179725218697e-3 6.387526858201974e-3 6.467872055252368e-3 6.549227870470380e-3
      6.631607015867664e-3 6.715022363353286e-3 6.799486946745004e-3 6.885013963805814e-3
      6.971616778306132e-3 7.059308922111930e-3 7.148104097299084e-3 7.238016178294372e-3
      7.329059214043376e-3 7.421247430205656e-3 7.514595231377557e-3 7.609117203342921e-3
      7.704828115352180e-3 7.801742922430055e-3 7.899876767712324e-3 7.999244984811977e-3
      8.099863100215099e-3 8.201746835706929e-3 8.304912110828422e-3 8.409375045363699e-3
      8.515151961858827e-3 8.622259388172209e-3 8.730714060057114e-3 8.840532923776678e-3
      8.951733138751781e-3 9.064332080242263e-3 9.178347342061809e-3 9.293796739327044e-3
      9.410698311241179e-3 9.529070323912647e-3 9.648931273209282e-3 9.770299887648257e-3
      9.893195131322509e-3 1.001763620686389e-2 1.014364255844362e-2 1.027123387481053e-2
      1.040043009236735e-2 1.053125139828595e-2 1.066371823366154e-2 1.079785129670662e-2
      1.093367154598522e-2 1.107120020368761e-2 1.121045875894636e-2 1.135146897119405e-2
      1.149425287356322e-2 1.163883277632913e-2 1.178523127039574e-2 1.193347123082558e-2
      1.208357582041408e-2 1.223556849330873e-2 1.238947299867393e-2 1.254531338440175e-2
      1.270311400086952e-2 1.286289950474461e-2 1.302469486283709e-2 1.318852535600083e-2
      1.335441658308372e-2 1.352239446492749e-2 1.369248524841792e-2 1.386471551058599e-2
      1.403911216276057e-2 1.421570245477339e-2 1.439451397921684e-2 1.457557467575541e-2
      1.475891283549128e-2 1.494455710538496e-2 1.513253649273129e-2 1.532288036969199e-2
      1.551561847788510e-2 1.571078093303214e-2 1.590839822966381e-2 1.610850124588476e-2
      1.631112124819837e-2 1.651628989639224e-2 1.672403924848508e-2 1.693440176573581e-2
      1.714741031771576e-2 1.736309818744452e-2 1.758149907659057e-2 1.780264711073716e-2
      1.802657684471459e-2 1.825332326799936e-2 1.848292181018142e-2 1.871540834650013e-2
      1.895081920344975e-2 1.918919116445567e-2 1.943056147562175e-2 1.967496785155017e-2
      1.992244848123444e-2 2.017304203402642e-2 2.042678766567860e-2 2.068372502446217e-2
      2.094389425736218e-2 2.120733601635059e-2 2.147409146473819e-2 2.174420228360655e-2
      2.201771067832065e-2 2.229465938512362e-2 2.257509167781435e-2 2.285905137450910e-2
      2.314658284448824e-2 2.343773101512892e-2 2.373254137892514e-2 2.403106000059606e-2
      2.433333352428362e-2 2.463940918084092e-2 2.494933479521199e-2 2.526315879390463e-2
      2.558093021255711e-2 2.590269870360010e-2 2.622851454401499e-2 2.655842864318971e-2
      2.689249255087347e-2 2.723075846523151e-2 2.757327924100112e-2 2.792010839775045e-2
      2.827130012824081e-2 2.862690930689462e-2 2.898699149836954e-2 2.935160296624053e-2
      2.972080068179134e-2 3.009464233291611e-2 3.047318633313343e-2 3.085649183071348e-2
      3.124461871792006e-2 3.163762764036905e-2 3.203558000650405e-2 3.243853799719195e-2
      3.284656457543869e-2 3.325972349622714e-2 3.367807931647937e-2 3.410169740514331e-2
      3.453064395340726e-2 3.496498598504214e-2 3.540479136687392e-2 3.585012881938845e-2
      3.630106792746861e-2 3.675767915126752e-2 3.722003383721796e-2 3.768820422918016e-2
      3.816226347973047e-2 3.864228566159116e-2 3.912834577920480e-2 3.962051978045375e-2
      4.011888456852692e-2 4.062351801393648e-2 4.113449896668484e-2 4.165190726858553e-2
      4.217582376573847e-2 4.270633032116212e-2 4.324350982758522e-2 4.378744622039842e-2
      4.433822449076981e-2 4.489593069892477e-2 4.546065198759283e-2 4.603247659562447e-2
      4.661149387177788e-2 4.719779428868059e-2 4.779146945696563e-2 4.839261213958574e-2
      4.900131626630830e-2 4.961767694839132e-2 5.024179049344548e-2 5.087375442048203e-2
      5.151366747515017e-2 5.216162964516675e-2 5.281774217593896e-2 5.348210758638469e-2
      5.415482968495109e-2 5.483601358583452e-2 5.552576572540556e-2 5.622419387883916e-2
      5.693140717695532e-2 5.764751612327084e-2 5.837263261126530e-2 5.910686994186541e-2
      5.985034284114771e-2 6.060316747826540e-2 6.136546148359977e-2 6.213734396713985e-2
      6.291893553709431e-2 6.371035831873593e-2 6.451173597348454e-2 6.532319371822927e-2
      6.614485834489346e-2 6.697685824024689e-2 6.781932340596573e-2 6.867238547894623e-2
      6.953617775187300e-2 7.041083519404580e-2 7.129649447246979e-2 7.219329397320882e-2
      7.310137382300953e-2 7.402087591119613e-2 7.495194391184040e-2 7.589472330621189e-2
      7.684936140550887e-2 7.781600737387670e-2 7.879481225171475e-2 7.978592897927628e-2
      8.078951242056666e-2 8.180571938754021e-2 8.283470866460306e-2 8.387664103342340e-2
      8.493167929805345e-2 8.599998831036881e-2 8.708173499582584e-2 8.817708837954514e-2
      8.928621961272157e-2 9.040930199936657e-2 9.154651102338828e-2 9.269802437601006e-2
      9.386402198353617e-2 9.504468603546522e-2 9.624020101295706e-2 9.745075371765955e-2
      9.867653330089539e-2 9.991773129321841e-2 1.011745416343404e-1 1.024471607034337e-1
      1.037357873498176e-1 1.050406229240267e-1 1.063618713092746e-1 1.076997389533096e-1
      1.090544349006727e-1 1.104261708253622e-1 1.118151610639068e-1 1.132216226488572e-1
      1.146457753426980e-1 1.160878416721845e-1 1.175480469631150e-1 1.190266193755367e-1
      1.205237899393974e-1 1.220397925906438e-1 1.235748642077742e-1 1.251292446488523e-1
      1.267031767889840e-1 1.282969065582686e-1 1.299106829802252e-1 1.315447582107026e-1
      1.331993875772805e-1 1.348748296191634e-1 1.365713461275793e-1 1.382892021866844e-1
      1.400286662149825e-1 1.417900100072674e-1 1.435735087770898e-1 1.453794411997612e-1
      1.472080894558970e-1 1.490597392755073e-1 1.509346799826440e-1 1.528332045406068e-1
      1.547556095977208e-1 1.567021955336869e-1 1.586732665065183e-1 1.606691305000649e-1
      1.626900993721357e-1 1.647364889032293e-1 1.668086188458727e-1 1.689068129745855e-1
      1.710313991364696e-1 1.731827093024344e-1 1.753610796190710e-1 1.775668504611727e-1
      1.798003664849215e-1 1.820619766817406e-1 1.843520344328239e-1 1.866708975643546e-1
      1.890189284034145e-1 1.913964938345993e-1 1.938039653573454e-1 1.962417191439754e-1
      1.987101360984789e-1 2.012096019160263e-1 2.037405071432373e-1 2.063032472392030e-1
      2.088982226372766e-1 2.115258388076445e-1 2.141865063206783e-1 2.168806409110906e-1
      2.196086635428927e-1 2.223710004751704e-1 2.251680833286898e-1 2.280003491533372e-1
      2.308682404964100e-1 2.337722054717658e-1 2.367126978298395e-1 2.396901770285452e-1
      2.427051083050647e-1 2.457579627485442e-1 2.488492173737020e-1 2.519793551953618e-1
      2.551488653039272e-1 2.583582429418003e-1 2.616079895807670e-1 2.648986130003517e-1
      2.682306273671577e-1 2.716045533152098e-1 2.750209180273006e-1 2.784802553173676e-1
      2.819831057139008e-1 2.855300165444005e-1 2.891215420209011e-1 2.927582433265643e-1
      2.964406887033686e-1 3.001694535408965e-1 3.039451204662391e-1 3.077682794350363e-1
      3.116395278236541e-1 3.155594705225298e-1 3.195287200306861e-1 3.235478965514328e-1
      3.276176280892795e-1 3.317385505480579e-1 3.359113078302867e-1 3.401365519377814e-1
      3.444149430735290e-1 3.487471497448502e-1 3.531338488678498e-1 3.575757258731915e-1
      3.620734748131950e-1 3.666277984702816e-1 3.712394084667899e-1 3.759090253761629e-1
      3.806373788355438e-1 3.854252076597812e-1 3.902732599568685e-1 3.951822932448418e-1
      4.001530745701385e-1 4.051863806274546e-1 4.102829978811024e-1 4.154437226878957e-1
      4.206693614215866e-1 4.259607305988574e-1 4.313186570069080e-1 4.367439778326414e-1
      4.422375407934728e-1 4.478002042697933e-1 4.534328374390867e-1 4.591363204117464e-1
      4.649115443685912e-1 4.707594117001126e-1 4.766808361474805e-1 4.826767429453104e-1
      4.887480689662389e-1 4.948957628673099e-1 5.011207852382013e-1 5.074241087513252e-1
      5.138067183138030e-1 5.202696112213651e-1 5.268137973141783e-1 5.334402991346319e-1
      5.401501520871189e-1 5.469444045998126e-1 5.538241182884921e-1 5.607903681224191e-1
      5.678442425923010e-1 5.749868438803771e-1 5.822192880326283e-1 5.895427051331690e-1
      5.969582394808217e-1 6.044670497679132e-1 6.120703092613297e-1 6.197692059858340e-1
      6.275649429097038e-1 6.354587381326953e-1 6.434518250763696e-1 6.515454526768261e-1
      6.597408855798418e-1 6.680394043384826e-1 6.764423056131892e-1 6.849509023743792e-1
      6.935665241076099e-1 7.022905170213032e-1 7.111242442571022e-1 7.200690861028612e-1
      7.291264402083143e-1 7.382977218034707e-1 7.475843639197358e-1 7.569878176138356e-1
      7.665095521945426e-1 7.761510554522545e-1 7.859138338914739e-1 7.957994129661913e-1
      8.058093373182512e-1 8.159451710187003e-1 8.262084978121731e-1 8.366009213643647e-1
      8.471240655125959e-1 8.577795745195507e-1 8.685691133301917e-1 8.794943678319068e-1
      8.905570451179422e-1 9.017588737541281e-1 9.131016040489810e-1 9.245870083271875e-1
      9.362168812065303e-1 9.479930398783114e-1 9.599173243912789e-1 9.719915979391494e-1
      9.842177471517319e-1 9.965976823897114e-1 1.009133338043160e0 1.021826672833774e0
      1.034679670120940e0 1.047694338211637e0 1.060872710674229e0 1.074216846656227e0
      1.087728831206025e0 1.101410775598700e0 1.115264817665902e0 1.129293122129886e0
      1.143497880941770e0 1.157881313624013e0 1.172445667617238e0 1.187193218631389e0
      1.202126271001313e0 1.217247158046828e0 1.232558242437294e0 1.248061916560800e0
      1.263760602897973e0 1.279656754400487e0 1.295752854874360e0 1.312051419368035e0
      1.328554994565375e0 1.345266159183585e0 1.362187524376130e0 1.379321734140754e0
      1.396671465732586e0 1.414239430082489e0 1.432028372220637e0 1.450041071705427e0
      1.468280343057805e0 1.486749036201023e0 1.505450036905961e0 1.524386267242030e0
      1.543560686033742e0 1.562976289323047e0 1.582636110837456e0 1.602543222464082e0
      1.622700734729620e0 1.643111797286368e0 1.663779599404381e0 1.684707370469784e0
      1.705898380489386e0 1.727355940601621e0 1.749083403593904e0 1.771084164426540e0
      1.793361660763162e0 1.815919373507902e0 1.838760827349272e0 1.861889591310901e0
      1.885309279309218e0 1.909023550718116e0 1.933036110940752e0 1.957350711988519e0
      1.981971153067291e0 2.006901281171086e0 2.032144991683132e0 2.057706228984559e0
      2.083588987070706e0 2.109797310175172e0 2.136335293401774e0 2.163207083364374e0
      2.190416878834827e0 2.217968931399042e0 2.245867546121275e0 2.274117082216847e0
      2.302721953733240e0 2.331686630239826e0 2.361015637526246e0 2.390713558309547e0
      2.420785032950284e0 2.451234760177540e0 2.482067497823151e0 2.513288063565105e0
      2.544901335680312e0 2.576912253806865e0 2.609325819715840e0 2.642147098092860e0
      2.675381217329452e0 2.709033370324351e0 2.743108815294941e0 2.777612876598814e0
      2.812550945565752e0 2.847928481340119e0 2.883751011733846e0 2.920024134090199e0
      2.956753516158333e0 2.993944896978928e0 3.031604087780911e0 3.069736972889450e0
      3.108349510645438e0 3.147447734336443e0 3.187037753139471e0 3.227125753075512e0
      3.267717997976103e0 3.308820830462107e0 3.350440672934714e0 3.392584028578991e0
      3.435257482380006e0 3.478467702151722e0 3.522221439578903e0 3.566525531272028e0
      3.611386899835566e0 3.656812554949633e0 3.702809594465247e0 3.749385205513429e0
      3.796546665628148e0 3.844301343883506e0 3.892656702045144e0 3.941620295736142e0
      3.991199775617644e0 4.041402888584239e0 4.092237478974473e0 4.143711489796526e0
      4.195832963969298e0 4.248610045579187e0 4.302050981152553e0 4.356164120944316e0
      4.410957920242670e0 4.466440940690216e0 4.522621851621798e0 4.579509431419034e0
      4.637112568882013e0 4.695440264618167e0 4.754501632448607e0 4.814305900832234e0
      4.874862414307639e0 4.936180634953264e0 4.998270143865846e0 5.061140642657459e0
      5.124801954971466e0 5.189264028017419e0 5.254536934125389e0 5.320630872319765e0
      5.387556169912839e0 5.455323284118539e0 5.523942803686315e0 5.593425450555715e0
      5.663782081531687e0 5.735023689980943e0 5.807161407549764e0 5.880206505903267e0
      5.954170398486689e0 6.029064642308740e0 6.104900939747369e0 6.181691140378361e0
      6.259447242826775e0 6.338181396641825e0 6.417905904195242e0 6.498633222603507e0
      6.580375965674389e0 6.663146905877775e0 6.746958976341481e0 6.831825272872049e0
      6.917759056000945e0 7.004773753056645e0 7.092882960262572e0 7.182100444861621e0
      7.272440147267289e0 7.363916183241849e0 7.456542846102058e0 7.550334608952410e0
      7.645306126946688e0 7.741472239577810e0 7.838847972996500e0 7.937448542359245e0
      8.037289354205583e0 8.138386008865510e0 8.240754302897011e0 8.344410231554269e0
      8.449369991287057e0 8.555649982271346e0 8.663266810971969e0 8.772237292737374e0
      8.882578454427012e0 8.994307537071913e0 9.107441998568529e0 9.221999516406655e0
      9.337997990431541e0 9.455455545640717e0 9.574390535016191e0 9.694821542391995e0
      9.816767385358064e0 9.940247118200480e0 1.006528003487869e1 1.019188567204034e1
      1.032008381207377e1 1.044989448619922e1 1.058133797759863e1 1.071443482458492e1
      1.084920582381126e1 1.098567203352043e1 1.112385477683536e1 1.126377564509085e1
      1.140545650120720e1 1.154891948310646e1 1.169418700717139e1 1.184128177174821e1
      1.199022676069315e1 1.214104524696374e1 1.229376079625533e1 1.244839727068317e1
      1.260497883251102e1 1.276352994792650e1 1.292407539086391e1 1.308664024687541e1
      1.325124991705044e1 1.341793012198489e1 1.358670690579991e1 1.375760664021131e1
      1.393065602865033e1 1.410588211043594e1 1.428331226499995e1 1.446297421616502e1
      1.464489603647648e1 1.482910615158895e1 1.501563334470762e1 1.520450676108595e1
      1.539575591257953e1 1.558941068225734e1 1.578550132907117e1 1.598405849258351e1
      1.618511319775512e1 1.638869685979278e1 1.659484128905783e1 1.680357869603677e1
      1.701494169637409e1 1.722896331596865e1 1.744567699613395e1 1.766511659882336e1
      1.788731641192133e1 1.811231115460067e1 1.834013598274769e1 1.857082649445535e1
      1.880441873558537e1 1.904094920540075e1 1.928045486226855e1 1.952297312943497e1
      1.976854190087269e1 2.001719954720181e1 2.026898492168552e1 2.052393736630077e1
      2.078209671788578e1 2.104350331436451e1 2.130819800104941e1 2.157622213702387e1
      2.184761760160437e1 2.212242680088445e1 2.240069267436063e1 2.268245870164170e1
      2.296776890924277e1 2.325666787746415e1 2.354920074735745e1 2.384541322777877e1
      2.414535160253078e1 2.444906273759481e1 2.475659408845357e1 2.506799370750632e1
      2.538331025157714e1 2.570259298951747e1 2.602589180990480e1 2.635325722883746e1
      2.668474039782824e1 2.702039311179676e1 2.736026781716237e1 2.770441762003935e1
      2.805289629453450e1 2.840575829114972e1 2.876305874528995e1 2.912485348587797e1
      2.949119904407820e1 2.986215266212932e1 3.023777230228891e1 3.061811665589003e1
      3.100324515251161e1 3.139321796926492e1 3.178809604019587e1 3.218794106580648e1
      3.259281552269556e1 3.300278267332060e1 3.341790657588308e1 3.383825209433724e1
      3.426388490852561e1 3.469487152444142e1 3.513127928462011e1 3.557317637866223e1
      3.602063185388765e1 3.647371562612478e1 3.693249849063491e1 3.739705213317389e1
      3.786744914119363e1 3.834376301518355e1 3.882606818015558e1 3.931443999727307e1
      3.980895477562592e1 4.030968978415448e1 4.081672326372245e1 4.133013443934263e1
      4.185000353255584e1 4.237641177396545e1 4.290944141593029e1 4.344917574541622e1
      4.399569909701042e1 4.454909686609854e1 4.510945552220776e1 4.567686262251829e1
      4.625140682554383e1 4.683317790498505e1 4.742226676375688e1 4.801876544819179e1