<UPF version="2.0.1">
  <PP_INFO>
Generated using "atomic" code by A. Dal Corso  v.6.2.2
Author: ADC
Generation date:  4May2018
Pseudopotential type: USPP
Element: Gd
Functional: PBE
    Suggested minimum cutoff for wavefunctions:  35. Ry
    Suggested minimum cutoff for charge density: 227. Ry
    The Pseudo was generated with a Scalar-Relativistic Calculation
    Local Potential by smoothing AE potential with Bessel fncs, cutoff radius:   2.0000
    Pseudopotential contains additional information for GIPAW reconstruction.
    Valence configuration:
    nl pn  l   occ       Rcut    Rcut US       E pseu
    5S  1  0  2.00      1.300      1.700    -3.704791
    6S  2  0  1.50      1.300      1.700    -0.331370
    5P  2  1  6.00      1.300      1.800    -2.052402
    6P  3  1  0.50      1.300      1.800    -0.120401
    5D  3  2  1.00      1.300      2.000    -0.224643
    Generation configuration:
    5S  1  0  2.00      1.300      1.700    -3.704834
    6S  2  0  1.50      1.300      1.700    -0.331378
    5P  2  1  6.00      1.300      1.800    -2.052433
    6P  3  1  0.50      1.300      1.800    -0.120405
    5D  3  2  1.00      1.300      2.000    -0.224660
    5D  3  2  0.00      1.300      2.000     2.000000
    Pseudization used: troullier-martins

    <PP_INPUTFILE>
 &amp;input
   title='Gd',
   zed=64.0,
   rel=1,
   config='[Xe] 4f7.0 5d1.0 6s1.5 6p0.5',
   iswitch=3,
   dft='PBE'
 /
 &amp;inputp
   lpaw=.false.,
   use_xsd=.FALSE.,
   pseudotype=3,
   file_pseudopw='Gd.pbe-spdn-rrkjus_psl.1.0.0.UPF',
   author='ADC',
   lloc=-1,
   rcloc=2.0,
   which_augfun='PSQ',
   rmatch_augfun_nc=.true.,
   nlcc=.true.,
   new_core_ps=.true.,
   rcore=1.1,
   tm=.true.
 /
6
5S  1  0  2.00  0.00  1.30  1.70  0.0
6S  2  0  1.50  0.00  1.30  1.70  0.0
5P  2  1  6.00  0.00  1.30  1.80  0.0
6P  3  1  0.50  0.00  1.30  1.80  0.0
5D  3  2  1.00  0.00  1.30  2.00  0.0
5D  3  2  0.00  2.00  1.30  2.00  0.0
</PP_INPUTFILE>
  </PP_INFO>
  <!--
 END OF HUMAN READABLE SECTION 
-->
  <PP_HEADER generated="Generated using &quot;atomic&quot; code by A. Dal Corso  v.6.2.2" author="ADC" date=" 4May2018" comment="" element="Gd" pseudo_type="USPP" relativistic="scalar" is_ultrasoft="true" is_paw="false" is_coulomb="false" has_so="false" has_wfc="false" has_gipaw="true" paw_as_gipaw="false" core_correction="true" functional="PBE" z_valence="1.100000000000e1" total_psenergy="-1.236627342173e2" wfc_cutoff="3.483179487030e1" rho_cutoff="2.270145958557e2" l_max="2" l_max_rho="4" l_local="-1" mesh_size="1263" number_of_wfc="5" number_of_proj="6"/>
  <PP_MESH dx="1.250000000000e-2" mesh="1263" xmin="-7.000000000000e0" rmax="1.000000000000e2" zmesh="6.400000000000e1">
    <PP_R>
      1.424815571178931e-5 1.442737544795347e-5 1.460884949088410e-5 1.479260619626959e-5
      1.497867427646906e-5 1.516708280499858e-5 1.535786122107404e-5 1.555103933421111e-5
      1.574664732888298e-5 1.594471576923679e-5 1.614527560386933e-5 1.634835817066279e-5
      1.655399520168141e-5 1.676221882812964e-5 1.697306158537278e-5 1.718655641802060e-5
      1.740273668507505e-5 1.762163616514269e-5 1.784328906171261e-5 1.806773000850090e-5
      1.829499407486210e-5 1.852511677126895e-5 1.875813405486095e-5 1.899408233506273e-5
      1.923299847927314e-5 1.947491981862577e-5 1.971988415382210e-5 1.996792976103788e-5
      2.021909539790387e-5 2.047342030956187e-5 2.073094423479674e-5 2.099170741224573e-5
      2.125575058668584e-5 2.152311501540027e-5 2.179384247462498e-5 2.206797526607628e-5
      2.234555622356054e-5 2.262662871966712e-5 2.291123667254536e-5 2.319942455276698e-5
      2.349123739027457e-5 2.378672078141769e-5 2.408592089607735e-5 2.438888448488019e-5
      2.469565888650339e-5 2.500629203507132e-5 2.532083246764541e-5 2.563932933180823e-5
      2.596183239334271e-5 2.628839204400846e-5 2.661905930941522e-5 2.695388585699598e-5
      2.729292400408000e-5 2.763622672606751e-5 2.798384766470734e-5 2.833584113647836e-5
      2.869226214107668e-5 2.905316637000939e-5 2.941861021529652e-5 2.978865077828244e-5
      3.016334587855796e-5 3.054275406299479e-5 3.092693461489369e-5 3.131594756324748e-5
      3.170985369212084e-5 3.210871455014779e-5 3.251259246014890e-5 3.292155052886928e-5
      3.333565265683919e-5 3.375496354835867e-5 3.417954872160758e-5 3.460947451888308e-5
      3.504480811696567e-5 3.548561753761573e-5 3.593197165820212e-5 3.638394022246427e-5
      3.684159385140989e-5 3.730500405434958e-5 3.777424324007037e-5 3.824938472814973e-5
      3.873050276041185e-5 3.921767251252811e-5 3.971097010576342e-5 4.021047261887031e-5
      4.071625810013279e-5 4.122840557956128e-5 4.174699508124141e-5 4.227210763583792e-5
      4.280382529325576e-5 4.334223113546076e-5 4.388740928946114e-5 4.443944494045261e-5
      4.499842434512880e-5 4.556443484515887e-5 4.613756488083510e-5 4.671790400489156e-5
      4.730554289649711e-5 4.790057337542411e-5 4.850308841639546e-5 4.911318216361218e-5
      4.973094994546356e-5 5.035648828942229e-5 5.098989493712730e-5 5.163126885965596e-5
      5.228071027298863e-5 5.293832065366737e-5 5.360420275465209e-5 5.427846062137584e-5
      5.496119960800200e-5 5.565252639388641e-5 5.635254900024579e-5 5.706137680703661e-5
      5.777912057004581e-5 5.850589243819657e-5 5.924180597107199e-5 5.998697615665880e-5
      6.074151942931454e-5 6.150555368796066e-5 6.227919831450455e-5 6.306257419249310e-5
      6.385580372600104e-5 6.465901085875682e-5 6.547232109350906e-5 6.629586151163656e-5
      6.712976079300531e-5 6.797414923607450e-5 6.882915877825634e-5 6.969492301653128e-5
      7.057157722832291e-5 7.145925839263551e-5 7.235810521145697e-5 7.326825813143143e-5
      7.418985936580434e-5 7.512305291664354e-5 7.606798459734004e-5 7.702480205539143e-5
      7.799365479547213e-5 7.897469420279397e-5 7.996807356676018e-5 8.097394810491759e-5
      8.199247498720911e-5 8.302381336053244e-5 8.406812437360658e-5 8.512557120215195e-5
      8.619631907438706e-5 8.728053529684530e-5 8.837838928051733e-5 8.949005256732166e-5
      9.061569885690846e-5 9.175550403380083e-5 9.290964619487649e-5 9.407830567719625e-5
      9.526166508618184e-5 9.645990932414845e-5 9.767322561919624e-5 9.890180355446478e-5
      1.001458350977560e-4 1.014055146315295e-4 1.026810389832752e-4 1.039726074562684e-4
      1.052804218607104e-4 1.066046865452629e-4 1.079456084289771e-4 1.093033970336252e-4
      1.106782645164395e-4 1.120704257032609e-4 1.134800981221077e-4 1.149075020371631e-4
      1.163528604831928e-4 1.178163993003949e-4 1.192983471696869e-4 1.207989356484386e-4
      1.223183992066527e-4 1.238569752636015e-4 1.254149042249244e-4 1.269924295201908e-4
      1.285897976409380e-4 1.302072581791845e-4 1.318450638664302e-4 1.335034706131460e-4
      1.351827375487599e-4 1.368831270621473e-4 1.386049048426290e-4 1.403483399214862e-4
      1.421137047139972e-4 1.439012750620022e-4 1.457113302770051e-4 1.475441531838158e-4
      1.494000301647423e-4 1.512792512043389e-4 1.531821099347161e-4 1.551089036814220e-4
      1.570599335098998e-4 1.590355042725292e-4 1.610359246562617e-4 1.630615072308517e-4
      1.651125684976977e-4 1.671894289392957e-4 1.692924130693149e-4 1.714218494833045e-4
      1.735780709100361e-4 1.757614142634948e-4 1.779722206955215e-4 1.802108356491191e-4
      1.824776089124290e-4 1.847728946733847e-4 1.870970515750566e-4 1.894504427716891e-4
      1.918334359854443e-4 1.942464035638608e-4 1.966897225380312e-4 1.991637746815167e-4
      2.016689465699980e-4 2.042056296416794e-4 2.067742202584522e-4 2.093751197678254e-4
      2.120087345656396e-4 2.146754761595648e-4 2.173757612334003e-4 2.201100117121833e-4
      2.228786548281134e-4 2.256821231873106e-4 2.285208548374097e-4 2.313952933360063e-4
      2.343058878199644e-4 2.372530930755929e-4 2.402373696097099e-4 2.432591837215951e-4
      2.463190075758514e-4 2.494173192761816e-4 2.525546029400918e-4 2.557313487745379e-4
      2.589480531525196e-4 2.622052186906400e-4 2.655033543276419e-4 2.688429754039278e-4
      2.722246037420862e-4 2.756487677284245e-4 2.791160023955318e-4 2.826268495058799e-4
      2.861818576364715e-4 2.897815822645606e-4 2.934265858544439e-4 2.971174379453477e-4
      3.008547152404208e-4 3.046390016968437e-4 3.084708886170747e-4 3.123509747412411e-4
      3.162798663406936e-4 3.202581773127384e-4 3.242865292765584e-4 3.283655516703442e-4
      3.324958818496434e-4 3.366781651869496e-4 3.409130551725434e-4 3.452012135166007e-4
      3.495433102525875e-4 3.539400238419526e-4 3.583920412801395e-4 3.629000582039309e-4
      3.674647790001423e-4 3.720869169156856e-4 3.767671941690137e-4 3.815063420629693e-4
      3.863051010990532e-4 3.911642210931272e-4 3.960844612925772e-4 4.010665904949443e-4
      4.061113871680523e-4 4.112196395716455e-4 4.163921458805545e-4 4.216297143094138e-4
      4.269331632389465e-4 4.323033213438371e-4 4.377410277222160e-4 4.432471320267672e-4
      4.488224945974912e-4 4.544679865961325e-4 4.601844901423014e-4 4.659728984513080e-4
      4.718341159737266e-4 4.777690585367202e-4 4.837786534871390e-4 4.898638398364201e-4
      4.960255684073117e-4 5.022648019824385e-4 5.085825154547411e-4 5.149796959798025e-4
      5.214573431300950e-4 5.280164690511651e-4 5.346580986197819e-4 5.413832696040785e-4
      5.481930328257036e-4 5.550884523240151e-4 5.620706055223384e-4 5.691405833963161e-4
      5.762994906443751e-4 5.835484458603378e-4 5.908885817082044e-4 5.983210450991354e-4
      6.058469973706564e-4 6.134676144681221e-4 6.211840871284581e-4 6.289976210662164e-4
      6.369094371619722e-4 6.449207716530867e-4 6.530328763268736e-4 6.612470187161924e-4
      6.695644822975028e-4 6.779865666914120e-4 6.865145878657409e-4 6.951498783411489e-4
      7.038937873993410e-4 7.127476812938970e-4 7.217129434637519e-4 7.307909747493592e-4
      7.399831936115771e-4 7.492910363533040e-4 7.587159573439058e-4 7.682594292464623e-4
      7.779229432478742e-4 7.877080092918654e-4 7.976161563149127e-4 8.076489324851471e-4
      8.178079054442559e-4 8.280946625524344e-4 8.385108111364083e-4 8.490579787405858e-4
      8.597378133813635e-4 8.705519838046310e-4 8.815021797465212e-4 8.925901121974265e-4
      9.038175136693514e-4 9.151861384666182e-4 9.266977629599802e-4 9.383541858641866e-4
      9.501572285190308e-4 9.621087351739410e-4 9.742105732761477e-4 9.864646337624745e-4
      9.988728313548057e-4 1.011437104859259e-3 1.024159417469130e-3 1.037041757071651e-3
      1.050086136558590e-3 1.063294594140784e-3 1.076669193666603e-3 1.090212024944432e-3
      1.103925204069213e-3 1.117810873753081e-3 1.131871203660179e-3 1.146108390745658e-3
      1.160524659598967e-3 1.175122262791445e-3 1.189903481228286e-3 1.204870624504949e-3
      1.220026031268018e-3 1.235372069580636e-3 1.250911137292509e-3 1.266645662414582e-3
      1.282578103498419e-3 1.298710950020352e-3 1.315046722770475e-3 1.331587974246514e-3
      1.348337289052664e-3 1.365297284303444e-3 1.382470610032615e-3 1.399859949607261e-3
      1.417468020147071e-3 1.435297572948889e-3 1.453351393916617e-3 1.471632303996511e-3
      1.490143159617963e-3 1.508886853139826e-3 1.527866313302344e-3 1.547084505684786e-3
      1.566544433168809e-3 1.586249136407673e-3 1.606201694301351e-3 1.626405224477604e-3
      1.646862883779130e-3 1.667577868756816e-3 1.688553416169208e-3 1.709792803488265e-3
      1.731299349411468e-3 1.753076414380371e-3 1.775127401105684e-3 1.797455755098945e-3
      1.820064965210891e-3 1.842958564176603e-3 1.866140129167494e-3 1.889613282350261e-3
      1.913381691452843e-3 1.937449070337520e-3 1.961819179581208e-3 1.986495827063056e-3
      2.011482868559441e-3 2.036784208346433e-3 2.062403799809848e-3 2.088345646062977e-3
      2.114613800572073e-3 2.141212367789726e-3 2.168145503796176e-3 2.195417416948722e-3
      2.223032368539276e-3 2.250994673460208e-3 2.279308700878553e-3 2.307978874918701e-3
      2.337009675353674e-3 2.366405638305105e-3 2.396171356952007e-3 2.426311482248485e-3
      2.456830723650432e-3 2.487733849851411e-3 2.519025689527764e-3 2.550711132093100e-3
      2.582795128462290e-3 2.615282691825040e-3 2.648178898429221e-3 2.681488888374044e-3
      2.715217866413205e-3 2.749371102768149e-3 2.783953933951539e-3 2.818971763601107e-3
      2.854430063323981e-3 2.890334373551629e-3 2.926690304405579e-3 2.963503536573990e-3
      3.000779822199285e-3 3.038524985776933e-3 3.076744925065532e-3 3.115445612008362e-3
      3.154633093666492e-3 3.194313493163659e-3 3.234493010643012e-3 3.275177924235903e-3
      3.316374591042861e-3 3.358089448126885e-3 3.400329013519265e-3 3.443099887238032e-3
      3.486408752319216e-3 3.530262375861107e-3 3.574667610081601e-3 3.619631393388889e-3
      3.665160751465591e-3 3.711262798366533e-3 3.757944737630346e-3 3.805213863405013e-3
      3.853077561587603e-3 3.901543310978339e-3 3.950618684449164e-3 4.000311350127033e-3
      4.050629072592056e-3 4.101579714090740e-3 4.153171235764481e-3 4.205411698893498e-3
      4.258309266156447e-3 4.311872202905832e-3 4.366108878459491e-3 4.421027767408328e-3
      4.476637450940471e-3 4.532946618182114e-3 4.589964067555202e-3 4.647698708152198e-3
      4.706159561128160e-3 4.765355761110302e-3 4.825296557625311e-3 4.885991316544592e-3
      4.947449521547709e-3 5.009680775604233e-3 5.072694802474214e-3 5.136501448227565e-3
      5.201110682782495e-3 5.266532601463350e-3 5.332777426578029e-3 5.399855509015227e-3
      5.467777329861804e-3 5.536553502040451e-3 5.606194771967997e-3 5.676712021234556e-3
      5.748116268303787e-3 5.820418670234578e-3 5.893630524424330e-3 5.967763270374205e-3
      6.042828491476585e-3 6.118837916824984e-3 6.195803423046765e-3 6.273737036158856e-3
      6.352650933446863e-3 6.432557445367793e-3 6.513469057476694e-3 6.595398412377587e-3
      6.678358311698856e-3 6.762361718093555e-3 6.847421757264836e-3 6.933551720016872e-3
      7.020765064331589e-3 7.109075417471464e-3 7.198496578108844e-3 7.289042518482011e-3
      7.380727386578355e-3 7.473565508345065e-3 7.567571389927541e-3 7.662759719936036e-3
      7.759145371740779e-3 7.856743405795951e-3 7.955569071992956e-3 8.055637812043191e-3
      8.156965261890880e-3 8.259567254156213e-3 8.363459820609222e-3 8.468659194674800e-3
      8.575181813969166e-3 8.683044322868307e-3 8.792263575108688e-3 8.902856636420672e-3
      9.014840787195105e-3 9.128233525183376e-3 9.243052568231491e-3 9.359315857048529e-3
      9.477041558009896e-3 9.596248065995905e-3 9.716954007265940e-3 9.839178242368913e-3
      9.962939869090215e-3 1.008825822543581e-2 1.021515289265386e-2 1.034364369829428e-2
      1.047375071930687e-2 1.060549428517836e-2 1.073889498110894e-2 1.087397365122878e-2
      1.101075140185490e-2 1.114924960478911e-2 1.128948990065739e-2 1.143149420229128e-2
      1.157528469815184e-2 1.172088385579660e-2 1.186831442539014e-2 1.201759944325892e-2
      1.216876223549070e-2 1.232182642157932e-2 1.247681591811527e-2 1.263375494252270e-2
      1.279266801684348e-2 1.295357997156876e-2 1.311651594951887e-2 1.328150140977185e-2
      1.344856213164153e-2 1.361772421870560e-2 1.378901410288430e-2 1.396245854857056e-2
      1.413808465681187e-2 1.431591986954497e-2 1.449599197388365e-2 1.467832910646056e-2
      1.486295975782366e-2 1.504991277688785e-2 1.523921737544271e-2 1.543090313271691e-2
      1.562500000000000e-2 1.582153830532241e-2 1.602054875819420e-2 1.622206245440352e-2
      1.642611088087539e-2 1.663272592059156e-2 1.684193985757237e-2 1.705378538192113e-2
      1.726829559493200e-2 1.748550401426221e-2 1.770544457916916e-2 1.792815165581363e-2
      1.815366004262943e-2 1.838200497576080e-2 1.861322213456811e-2 1.884734764720283e-2
      1.908441809625266e-2 1.932447052445758e-2 1.956754244049789e-2 1.981367182485501e-2
      2.006289713574596e-2 2.031525731513268e-2 2.057079179480660e-2 2.082954050255005e-2
      2.109154386837506e-2 2.135684283084057e-2 2.162547884344924e-2 2.189749388112459e-2
      2.217293044676966e-2 2.245183157790821e-2 2.273424085340940e-2 2.302020240029712e-2
      2.330976090064485e-2 2.360296159855740e-2 2.389985030724031e-2 2.420047341615833e-2
      2.450487789828389e-2 2.481311131743662e-2 2.512522183571537e-2 2.544125822102361e-2
      2.576126985468950e-2 2.608530673918192e-2 2.641341950592331e-2 2.674565942320102e-2
      2.708207840417807e-2 2.742272901500467e-2 2.776766448303186e-2 2.811693870512827e-2
      2.847060625610172e-2 2.882872239722658e-2 2.919134308487848e-2 2.955852497927766e-2
      2.993032545334214e-2 3.030680260165242e-2 3.068801524952888e-2 3.107402296222332e-2
      3.146488605422620e-2 3.186066559869087e-2 3.226142343697637e-2 3.266722218831026e-2
      3.307812525957305e-2 3.349419685520563e-2 3.391550198724130e-2 3.434210648546411e-2
      3.477407700769483e-2 3.521148105020639e-2 3.565438695827038e-2 3.610286393683601e-2
      3.655698206134362e-2 3.701681228867408e-2 3.748242646823590e-2 3.795389735319201e-2
      3.843129861182735e-2 3.891470483905988e-2 3.940419156809609e-2 3.989983528223323e-2
      4.040171342681010e-2 4.090990442130784e-2 4.142448767160325e-2 4.194554358237612e-2
      4.247315356967258e-2 4.300740007362668e-2 4.354836657134143e-2 4.409613758993281e-2
      4.465079871973697e-2 4.521243662768376e-2 4.578113907083914e-2 4.635699491011669e-2
      4.694009412416300e-2 4.753052782341666e-2 4.812838826434423e-2 4.873376886385618e-2
      4.934676421390264e-2 4.996747009625429e-2 5.059598349746817e-2 5.123240262404178e-2
      5.187682691775861e-2 5.252935707122548e-2 5.319009504360652e-2 5.385914407655434e-2
      5.453660871034128e-2 5.522259480019489e-2 5.591720953283720e-2 5.662056144323345e-2
      5.733276043155073e-2 5.805391778032975e-2 5.878414617187366e-2 5.952355970585411e-2
      6.027227391714021e-2 6.103040579385086e-2 6.179807379563401e-2 6.257539787217702e-2
      6.336249948194805e-2 6.415950161117517e-2 6.496652879306265e-2 6.578370712724936e-2
      6.661116429951285e-2 6.744902960171945e-2 6.829743395202746e-2 6.915650991534276e-2
      7.002639172403225e-2 7.090721529889855e-2 7.179911827041703e-2 7.270224000024170e-2
      7.361672160298038e-2 7.454270596824379e-2 7.548033778297319e-2 7.642976355404697e-2
      7.739113163117364e-2 7.836459223007130e-2 7.935029745593878e-2 8.034840132722330e-2
      8.135905979968516e-2 8.238243079076703e-2 8.341867420426842e-2 8.446795195533074e-2
      8.553042799573758e-2 8.660626833953165e-2 8.769564108895555e-2 8.879871646071793e-2
      8.991566681258954e-2 9.104666667033563e-2 9.219189275498467e-2 9.335152401044255e-2
      9.452574163145236e-2 9.571472909190602e-2 9.691867217351362e-2 9.813775899483073e-2
      9.937218004065357e-2 1.006221281917822e-1 1.018877987551580e-1 1.031693894943818e-1
      1.044671006606136e-1 1.057811350238636e-1 1.071116979046747e-1 1.084589972062037e-1
      1.098232434467078e-1 1.112046497924374e-1 1.126034320909448e-1 1.140198089048099e-1
      1.154540015457914e-1 1.169062341094076e-1 1.183767335099508e-1 1.198657295159442e-1
      1.213734547860434e-1 1.229001449053889e-1 1.244460384224184e-1 1.260113768861387e-1
      1.275964048838695e-1 1.292013700794605e-1 1.308265232519885e-1 1.324721183349435e-1
      1.341384124559047e-1 1.358256659767188e-1 1.375341425341815e-1 1.392641090812302e-1
      1.410158359286583e-1 1.427895967873488e-1 1.445856688110451e-1 1.464043326396552e-1
      1.482458724431020e-1 1.501105759657267e-1 1.519987345712483e-1 1.539106432882903e-1
      1.558466008564801e-1 1.578069097731258e-1 1.597918763404845e-1 1.618018107136202e-1
      1.638370269488683e-1 1.658978430529064e-1 1.679845810324430e-1 1.700975669445336e-1
      1.722371309475251e-1 1.744036073526463e-1 1.765973346762436e-1 1.788186556926738e-1
      1.810679174878657e-1 1.833454715135502e-1 1.856516736421781e-1 1.879868842225241e-1
      1.903514681359918e-1 1.927457948536291e-1 1.951702384938565e-1 1.976251778809253e-1
      2.001109966041100e-1 2.026280830776427e-1 2.051768306014067e-1 2.077576374223873e-1
      2.103709067969017e-1 2.130170470536057e-1 2.156964716572983e-1 2.184095992735257e-1
      2.211568538339970e-1 2.239386646028273e-1 2.267554662436082e-1 2.296076988873272e-1
      2.324958082011383e-1 2.354202454579967e-1 2.383814676071747e-1 2.413799373456567e-1
      2.444161231904402e-1 2.474904995517411e-1 2.506035468071199e-1 2.537557513765446e-1
      2.569476057983916e-1 2.601796088064084e-1 2.634522654076414e-1 2.667660869613416e-1
      2.701215912588697e-1 2.735193026045983e-1 2.769597518978381e-1 2.804434767157915e-1
      2.839710213975479e-1 2.875429371291417e-1 2.911597820296721e-1 2.948221212385138e-1
      2.985305270036198e-1 3.022855787709347e-1 3.060878632749378e-1 3.099379746303177e-1
      3.138365144248073e-1 3.177840918131817e-1 3.217813236124381e-1 3.258288343981786e-1
      3.299272566021973e-1 3.340772306113022e-1 3.382794048673762e-1 3.425344359686950e-1
      3.468429887725260e-1 3.512057364990098e-1 3.556233608363551e-1 3.600965520473531e-1
      3.646260090772300e-1 3.692124396628633e-1 3.738565604433617e-1 3.785590970720465e-1
      3.833207843298339e-1 3.881423662400445e-1 3.930245961846625e-1 3.979682370220484e-1
      4.029740612061416e-1 4.080428509071561e-1 4.131753981337938e-1 4.183725048570024e-1
      4.236349831352798e-1 4.289636552415640e-1 4.343593537917140e-1 4.398229218746039e-1
      4.453552131838643e-1 4.509570921512662e-1 4.566294340817959e-1 4.623731252904216e-1
      4.681890632405786e-1 4.740781566844056e-1 4.800413258047334e-1 4.860795023588697e-1
      4.921936298241870e-1 4.983846635455390e-1 5.046535708845425e-1 5.110013313707214e-1
      5.174289368545674e-1 5.239373916625151e-1 5.305277127538681e-1 5.372009298797068e-1
      5.439580857437820e-1 5.508002361654460e-1 5.577284502446236e-1 5.647438105288582e-1
      5.718474131824694e-1 5.790403681578217e-1 5.863237993687656e-1 5.936988448662469e-1
      6.011666570161271e-1 6.087284026792503e-1 6.163852633937585e-1 6.241384355597177e-1
      6.319891306260537e-1 6.399385752798406e-1 6.479880116379814e-1 6.561386974412814e-1
      6.643919062509810e-1 6.727489276477493e-1 6.812110674331798e-1 6.897796478338327e-1
      6.984560077078259e-1 7.072415027540433e-1 7.161375057239612e-1 7.251454066361402e-1
      7.342666129934273e-1 7.435025500028703e-1 7.528546607984190e-1 7.623244066664135e-1
      7.719132672739092e-1 7.816227408998877e-1 7.914543446693542e-1 8.014096147904016e-1
      8.114901067942421e-1 8.216973957782571e-1 8.320330766521201e-1 8.424987643869931e-1
      8.530960942678787e-1 8.638267221491326e-1 8.746923247131900e-1 8.856945997325605e-1
      8.968352663350975e-1 9.081160652726247e-1 9.195387591929290e-1 9.311051329151717e-1
      9.428169937087821e-1 9.546761715758340e-1 9.666845195369984e-1 9.788439139210768e-1
      9.911562546581772e-1 1.003623465576593e0 1.016247494703391e0 1.029030314568808e0
      1.041973922514456e0 1.055080341005408e0 1.068351617946222e0 1.081789827000916e0
      1.095397067916998e0 1.109175466853546e0 1.123127176713423e0 1.137254377479683e0
      1.151559276556185e0 1.166044109112514e0 1.180711138433229e0 1.195562656271498e0
      1.210600983207203e0 1.225828469009518e0 1.241247493004083e0 1.256860464444771e0
      1.272669822890127e0 1.288678038584580e0 1.304887612844395e0 1.321301078448531e0
      1.337921000034386e0 1.354749974498514e0 1.371790631402421e0 1.389045633383411e0
      1.406517676570654e0 1.424209491006445e0 1.442123841072780e0 1.460263525923309e0
      1.478631379920690e0 1.497230273079483e0 1.516063111514585e0 1.535132837895314e0
      1.554442431905218e0 1.573994910707643e0 1.593793329417183e0 1.613840781577045e0
      1.634140399642410e0 1.654695355469907e0 1.675508860813196e0 1.696584167824837e0
      1.717924569564432e0 1.739533400513162e0 1.761414037094833e0 1.783569898203423e0
      1.806004445737307e0 1.828721185140186e0 1.851723665948802e0 1.875015482347587e0
      1.898600273730234e0 1.922481725268383e0 1.946663568487429e0 1.971149581849565e0
      1.995943591344204e0 2.021049471085765e0 2.046471143919041e0 2.072212582032135e0
      2.098277807577118e0 2.124670893298517e0 2.151395963169668e0 2.178457193037112e0
      2.205858811273078e0 2.233605099436156e0 2.261700392940330e0 2.290149081732362e0
      2.318955610977759e0 2.348124481755328e0 2.377660251760463e0 2.407567536017327e0
      2.437851007599924e0 2.468515398362304e0 2.499565499677917e0 2.531006163188255e0
      2.562842301560968e0 2.595078889257439e0 2.627720963310085e0 2.660773624109393e0
      2.694242036200849e0 2.728131429091945e0 2.762447098069257e0 2.797194405025885e0
      2.832378779299241e0 2.868005718519375e0 2.904080789468036e0 2.940609628948445e0
      2.977597944666094e0 3.015051516120572e0 3.052976195508609e0 3.091377908638527e0
      3.130262655856122e0 3.169636512982264e0 3.209505632262240e0 3.249876243327041e0
      3.290754654166793e0 3.332147252116344e0 3.374060504853345e0 3.416500961408815e0
      3.459475253190424e0 3.502990095018708e0 3.547052286176220e0 3.591668711469981e0
      3.636846342307223e0 3.682592237784665e0 3.728913545791560e0 3.775817504126512e0
      3.823311441628444e0 3.871402779321724e0 3.920099031575697e0 3.969407807278864e0
      4.019336811027734e0 4.069893844330731e0 4.121086806827176e0 4.172923697521596e0
      4.225412616033641e0 4.278561763863602e0 4.332379445673968e0 4.386874070587024e0
      4.442054153498765e0 4.497928316409427e0 4.554505289770627e0 4.611793913849566e0
      4.669803140110321e0 4.728542032612498e0 4.788019769427572e0 4.848245644072913e0
      4.909229066963972e0 4.970979566884657e0 5.033506792476196e0 5.096820513744817e0
      5.160930623588264e0 5.225847139341641e0 5.291580204342618e0 5.358140089516318e0
      5.425537194980235e0 5.493782051669200e0 5.562885322980924e0 5.632857806442152e0
      5.703710435395765e0 5.775454280709207e0 5.848100552504253e0 5.921660601908680e0
      5.996145922829879e0 6.071568153750762e0 6.147939079548381e0 6.225270633335248e0
      6.303574898323986e0 6.382864109715321e0 6.463150656609825e0 6.544447083943818e0
      6.626766094449446e0 6.710120550639592e0 6.794523476817634e0 6.879988061112483e0
      6.966527657539337e0 7.054155788086179e0 7.142886144826702e0 7.232732592059681e0
      7.323709168475266e0 7.415830089348639e0 7.509109748761084e0 7.603562721849175e0
      7.699203767082137e0 7.796047828567843e0 7.894110038387961e0 7.993405718962253e0
      8.093950385442843e0 8.195759748138444e0 8.298849714969080e0 8.403236393951834e0
      8.508936095717647e0 8.615965336059981e0 8.724340838515406e0 8.834079536976642e0
      8.945198578338623e0 9.057715325177600e0 9.171647358464201e0 9.287012480310441e0
      9.403828716751285e0 9.522114320561377e0 9.641887774106934e0 9.763167792233766e0
      9.885973325191470e0 1.001032356159439e1 1.013623793141998e1 1.026373610904468e1
      1.039283801631815e1 1.052356382567609e1 1.065593396329212e1 1.078996911226960e1
      1.092569021587322e1 1.106311848080155e1 1.120227538050063e1 1.134318265851909e1
      1.148586233190584e1 1.163033669465011e1 1.177662832116502e1 1.192476006981487e1
      1.207475508648672e1 1.222663680820713e1 1.238042896680409e1 1.253615559261530e1
      1.269384101824288e1 1.285350988235535e1 1.301518713353764e1 1.317889803418912e1
      1.334466816447112e1 1.351252342630378e1 1.368249004741322e1 1.385459458542983e1
      1.402886393203779e1 1.420532531717707e1 1.438400631329814e1 1.456493483967013e1
      1.474813916674344e1 1.493364792056684e1 1.512149008726057e1 1.531169501754538e1
      1.550429243132854e1 1.569931242234784e1 1.589678546287361e1 1.609674240847022e1
      1.629921450281725e1 1.650423338259133e1 1.671183108240959e1 1.692204003983494e1
      1.713489310044467e1 1.735042352296258e1 1.756866498445564e1 1.778965158559626e1
      1.801341785599044e1 1.823999875957321e1 1.846942970007175e1 1.870174652653724e1
      1.893698553894654e1 1.917518349387386e1 1.941637761023431e1 1.966060557509932e1
      1.990790554958522e1 2.015831617481623e1 2.041187657796192e1 2.066862637835121e1
      2.092860569366280e1 2.119185514619357e1 2.145841586920613e1 2.172832951335570e1
      2.200163825319837e1 2.227838479378082e1 2.255861237731298e1 2.284236478992499e1
      2.312968636850854e1 2.342062200764488e1 2.371521716661958e1 2.401351787652551e1
      2.431557074745557e1 2.462142297578529e1 2.493112235154764e1 2.524471726590024e1
      2.556225671868636e1 2.588379032609164e1 2.620936832839631e1 2.653904159782566e1
      2.687286164649882e1 2.721088063447746e1 2.755315137791625e1 2.789972735731511e1
      2.825066272587599e1 2.860601231796426e1 2.896583165767654e1 2.933017696751683e1
      2.969910517718095e1 3.007267393245230e1 3.045094160420899e1 3.083396729754419e1
      3.122181086100189e1 3.161453289592783e1 3.201219476593903e1 3.241485860651177e1
      3.282258733469028e1 3.323544465891795e1 3.365349508899156e1 3.407680394614140e1
      3.450543737323768e1 3.493946234512531e1 3.537894667908933e1 3.582395904545091e1
      3.627456897829776e1 3.673084688634872e1 3.719286406395510e1 3.766069270224099e1
      3.813440590038283e1 3.861407767703165e1 3.909978298187853e1 3.959159770736537e1
      4.008959870054380e1 4.059386377508204e1 4.110447172342400e1 4.162150232910050e1
      4.214503637919547e1 4.267515567696949e1 4.321194305464125e1 4.375548238633068e1
      4.430585860116427e1 4.486315769654518e1 4.542746675159107e1 4.599887394073970e1
      4.657746854752701e1 4.716334097853755e1 4.775658277753046e1 4.835728663974398e1
      4.896554642637852e1 4.958145717926338e1 5.020511513570684e1 5.083661774353326e1
      5.147606367631010e1 5.212355284876514e1 5.277918643239899e1 5.344306687129308e1
      5.411529789811649e1 5.479598455033500e1 5.548523318662269e1 5.618315150348138e1
      5.688984855206811e1 5.760543475523428e1 5.833002192478023e1 5.906372327892518e1
      5.980665345999854e1 6.055892855235271e1 6.132066610050117e1 6.209198512748581e1
      6.287300615347363e1 6.366385121458907e1 6.446464388198200e1 6.527550928113572e1