<UPF version="2.0.1">
  <PP_INFO>
Generated using "atomic" code by A. Dal Corso  v.6.2.2
Author: ADC
Generation date:  4May2018
Pseudopotential type: USPP
Element: Ho
Functional: PBE
    Suggested minimum cutoff for wavefunctions:  36. Ry
    Suggested minimum cutoff for charge density: 268. Ry
    The Pseudo was generated with a Scalar-Relativistic Calculation
    Local Potential by smoothing AE potential with Bessel fncs, cutoff radius:   2.0000
    Pseudopotential contains additional information for GIPAW reconstruction.
    Valence configuration:
    nl pn  l   occ       Rcut    Rcut US       E pseu
    5S  1  0  2.00      1.200      1.600    -4.050704
    6S  2  0  1.50      1.200      1.600    -0.348873
    5P  2  1  6.00      1.200      1.700    -2.192641
    6P  3  1  0.50      1.200      1.700    -0.121398
    5D  3  2  1.00      1.200      2.000    -0.201653
    Generation configuration:
    5S  1  0  2.00      1.200      1.600    -4.050753
    6S  2  0  1.50      1.200      1.600    -0.348882
    5P  2  1  6.00      1.200      1.700    -2.192678
    6P  3  1  0.50      1.200      1.700    -0.121402
    5D  3  2  1.00      1.200      2.000    -0.201669
    5D  3  2  0.00      1.200      2.000     2.000000
    Pseudization used: troullier-martins

    <PP_INPUTFILE>
 &amp;input
   title='Ho',
   zed=67.0,
   rel=1,
   config='[Xe] 4f10.0 5d1.0 6s1.5 6p0.5',
   iswitch=3,
   dft='PBE'
 /
 &amp;inputp
   lpaw=.false.,
   use_xsd=.FALSE.,
   pseudotype=3,
   file_pseudopw='Ho.pbe-spdn-rrkjus_psl.1.0.0.UPF',
   author='ADC',
   lloc=-1,
   rcloc=2.0,
   which_augfun='PSQ',
   rmatch_augfun_nc=.true.,
   nlcc=.true.,
   new_core_ps=.true.,
   rcore=1.1,
   tm=.true.
 /
6
5S  1  0  2.00  0.00  1.20  1.60  0.0
6S  2  0  1.50  0.00  1.20  1.60  0.0
5P  2  1  6.00  0.00  1.20  1.70  0.0
6P  3  1  0.50  0.00  1.20  1.70  0.0
5D  3  2  1.00  0.00  1.20  2.00  0.0
5D  3  2  0.00  2.00  1.20  2.00  0.0
</PP_INPUTFILE>
  </PP_INFO>
  <!--
 END OF HUMAN READABLE SECTION 
-->
  <PP_HEADER generated="Generated using &quot;atomic&quot; code by A. Dal Corso  v.6.2.2" author="ADC" date=" 4May2018" comment="" element="Ho" pseudo_type="USPP" relativistic="scalar" is_ultrasoft="true" is_paw="false" is_coulomb="false" has_so="false" has_wfc="false" has_gipaw="true" paw_as_gipaw="false" core_correction="true" functional="PBE" z_valence="1.100000000000e1" total_psenergy="-1.222453043134e2" wfc_cutoff="3.612556346446e1" rho_cutoff="2.679812632682e2" l_max="2" l_max_rho="4" l_local="-1" mesh_size="1265" number_of_wfc="5" number_of_proj="6"/>
  <PP_MESH dx="1.250000000000e-2" mesh="1265" xmin="-7.000000000000e0" rmax="1.000000000000e2" zmesh="6.700000000000e1">
    <PP_R>
      1.361017859036591e-5 1.378137356222422e-5 1.395472190174003e-5 1.413025069494409e-5
      1.430798736856746e-5 1.448795969432700e-5 1.467019579326476e-5 1.485472414014195e-5
      1.504157356788822e-5 1.523077327210678e-5 1.542235281563637e-5 1.561634213317042e-5
      1.581277153593448e-5 1.601167171642234e-5 1.621307375319191e-5 1.641700911572117e-5
      1.662350966932542e-5 1.683260768013630e-5 1.704433582014339e-5 1.725872717229937e-5
      1.747581523568917e-5 1.769563393076437e-5 1.791821760464330e-5 1.814360103647783e-5
      1.837181944288778e-5 1.860290848346342e-5 1.883690426633753e-5 1.907384335382723e-5
      1.931376276814698e-5 1.955669999719343e-5 1.980269300040286e-5 2.005178021468249e-5
      2.030400056041633e-5 2.055939344754652e-5 2.081799878173133e-5 2.107985697058032e-5
      2.134500892996827e-5 2.161349609042830e-5 2.188536040362543e-5 2.216064434891174e-5
      2.243939093996377e-5 2.272164373150346e-5 2.300744682610373e-5 2.329684488107958e-5
      2.358988311546593e-5 2.388660731708305e-5 2.418706384969115e-5 2.449129966023472e-5
      2.479936228617812e-5 2.511129986293345e-5 2.542716113138170e-5 2.574699544548869e-5
      2.607085278001671e-5 2.639878373833314e-5 2.673083956031746e-5 2.706707213036739e-5
      2.740753398550607e-5 2.775227832359106e-5 2.810135901162653e-5 2.845483059418025e-5
      2.881274830190610e-5 2.917516806017414e-5 2.954214649780890e-5 2.991374095593789e-5
      3.029000949695125e-5 3.067101091357402e-5 3.105680473805268e-5 3.144745125145723e-5
      3.184301149310012e-5 3.224354727007395e-5 3.264912116690874e-5 3.305979655535100e-5
      3.347563760426572e-5 3.389670928966279e-5 3.432307740484979e-5 3.475480857071214e-5
      3.519197024612287e-5 3.563463073848319e-5 3.608285921439557e-5 3.653672571047139e-5
      3.699630114427401e-5 3.746165732539997e-5 3.793286696669937e-5 3.841000369563732e-5
      3.889314206579849e-5 3.938235756853614e-5 3.987772664476792e-5 4.037932669691980e-5
      4.088723610102042e-5 4.140153421894759e-5 4.192230141082854e-5 4.244961904759653e-5
      4.298356952370512e-5 4.352423627000251e-5 4.407170376676786e-5 4.462605755691135e-5
      4.518738425934052e-5 4.575577158249467e-5 4.633130833804939e-5 4.691408445479373e-5
      4.750419099268161e-5 4.810172015706009e-5 4.870676531307683e-5 4.931942100026838e-5
      4.993978294733242e-5 5.056794808708524e-5 5.120401457160797e-5 5.184808178758288e-5
      5.250025037182282e-5 5.316062222699598e-5 5.382930053754822e-5 5.450638978582601e-5
      5.519199576840197e-5 5.588622561260568e-5 5.658918779326282e-5 5.730099214964422e-5
      5.802174990262881e-5 5.875157367208184e-5 5.949057749445209e-5 6.023887684059043e-5
      6.099658863379203e-5 6.176383126806622e-5 6.254072462663553e-5 6.332739010066777e-5
      6.412395060824388e-5 6.493053061356370e-5 6.574725614639412e-5 6.657425482176121e-5
      6.741165585989055e-5 6.825959010639810e-5 6.911819005273500e-5 6.998758985688971e-5
      7.086792536435040e-5 7.175933412933112e-5 7.266195543626512e-5 7.357593032156794e-5
      7.450140159567489e-5 7.543851386535544e-5 7.638741355630824e-5 7.734824893604065e-5
      7.832117013703557e-5 7.930632918021008e-5 8.030387999866896e-5 8.131397846175709e-5
      8.233678239941449e-5 8.337245162683729e-5 8.442114796944939e-5 8.548303528818785e-5
      8.655827950510659e-5 8.764704862930227e-5 8.874951278316559e-5 8.986584422896355e-5
      9.099621739575579e-5 9.214080890664928e-5 9.329979760639642e-5 9.447336458933949e-5
      9.566169322770721e-5 9.686496920026698e-5 9.808338052133749e-5 9.931711757016679e-5
      1.005663731206786e-4 1.018313423715944e-4 1.031122229769333e-4 1.044092150768957e-4
      1.057225213291362e-4 1.070523469404283e-4 1.083988996987297e-4 1.097623900056483e-4
      1.111430309093185e-4 1.125410381376907e-4 1.139566301322382e-4 1.153900280820906e-4
      1.168414559585936e-4 1.183111405503059e-4 1.197993114984352e-4 1.213062013327196e-4
      1.228320455077616e-4 1.243770824398181e-4 1.259415535440527e-4 1.275257032722589e-4
      1.291297791510542e-4 1.307540318205586e-4 1.323987150735561e-4 1.340640858951510e-4
      1.357504045029227e-4 1.374579343875842e-4 1.391869423541541e-4 1.409376985636449e-4
      1.427104765752762e-4 1.445055533892193e-4 1.463232094898780e-4 1.481637288897166e-4
      1.500273991736356e-4 1.519145115439085e-4 1.538253608656829e-4 1.557602457130523e-4
      1.577194684157113e-4 1.597033351061930e-4 1.617121557677037e-4 1.637462442825595e-4
      1.658059184812285e-4 1.678915001919950e-4 1.700033152912444e-4 1.721416937543824e-4
      1.743069697073949e-4 1.764994814790540e-4 1.787195716537854e-4 1.809675871251955e-4
      1.832438791502752e-4 1.855488034042850e-4 1.878827200363283e-4 1.902459937256279e-4
      1.926389937385056e-4 1.950620939860818e-4 1.975156730827006e-4 2.000001144050870e-4
      2.025158061522528e-4 2.050631414061514e-4 2.076425181930988e-4 2.102543395459662e-4
      2.128990135671531e-4 2.155769534923564e-4 2.182885777551377e-4 2.210343100523045e-4
      2.238145794101151e-4 2.266298202513126e-4 2.294804724630065e-4 2.323669814654043e-4
      2.352897982814102e-4 2.382493796070988e-4 2.412461878830728e-4 2.442806913667228e-4
      2.473533642053919e-4 2.504646865104621e-4 2.536151444323744e-4 2.568052302365878e-4
      2.600354423805002e-4 2.633062855913308e-4 2.666182709449856e-4 2.699719159459151e-4
      2.733677446079729e-4 2.768062875362967e-4 2.802880820102151e-4 2.838136720671979e-4
      2.873836085878645e-4 2.909984493820596e-4 2.946587592760116e-4 2.983651102005885e-4
      3.021180812806626e-4 3.059182589256009e-4 3.097662369208916e-4 3.136626165209258e-4
      3.176080065429429e-4 3.216030234621608e-4 3.256482915081010e-4 3.297444427621261e-4
      3.338921172562030e-4 3.380919630729101e-4 3.423446364467004e-4 3.466508018664414e-4
      3.510111321792404e-4 3.554263086955803e-4 3.598970212957742e-4 3.644239685377617e-4
      3.690078577662597e-4 3.736494052232858e-4 3.783493361600738e-4 3.831083849503946e-4
      3.879272952053037e-4 3.928068198893331e-4 3.977477214381415e-4 4.027507718776491e-4
      4.078167529446652e-4 4.129464562090384e-4 4.181406831973406e-4 4.234002455181060e-4
      4.287259649886483e-4 4.341186737634699e-4 4.395792144642880e-4 4.451084403116973e-4
      4.507072152584851e-4 4.563764141246283e-4 4.621169227339835e-4 4.679296380526998e-4
      4.738154683293724e-4 4.797753332369563e-4 4.858101640164691e-4 4.919209036224980e-4
      4.981085068705386e-4 5.043739405861873e-4 5.107181837562095e-4 5.171422276815079e-4
      5.236470761320154e-4 5.302337455035367e-4 5.369032649765621e-4 5.436566766770781e-4
      5.504950358394032e-4 5.574194109710690e-4 5.644308840197775e-4 5.715305505424578e-4
      5.787195198764479e-4 5.859989153128332e-4 5.933698742719601e-4 6.008335484811619e-4
      6.083911041547197e-4 6.160437221760829e-4 6.237925982823869e-4 6.316389432512882e-4
      6.395839830901520e-4 6.476289592276174e-4 6.557751287075733e-4 6.640237643855751e-4
      6.723761551277287e-4 6.808336060120808e-4 6.893974385325392e-4 6.980689908053581e-4
      7.068496177782229e-4 7.157406914419622e-4 7.247436010449249e-4 7.338597533100534e-4
      7.430905726546857e-4 7.524375014131250e-4 7.619020000620063e-4 7.714855474484987e-4
      7.811896410213790e-4 7.910157970650118e-4 8.009655509362707e-4 8.110404573044402e-4
      8.212420903941380e-4 8.315720442312895e-4 8.420319328921993e-4 8.526233907557506e-4
      8.633480727587834e-4 8.742076546546798e-4 8.852038332752048e-4 8.963383267956411e-4
      9.076128750032533e-4 9.190292395691378e-4 9.305892043234843e-4 9.422945755343042e-4
      9.541471821896652e-4 9.661488762834709e-4 9.783015331048411e-4 9.906070515311288e-4
      1.003067354324623e-3 1.015684388432988e-3 1.028460125293471e-3 1.041396561140950e-3
      1.054495717319845e-3 1.067759640599959e-3 1.081190403496290e-3 1.094790104592867e-3
      1.108560868870655e-3 1.122504848039589e-3 1.136624220874781e-3 1.150921193556966e-3
      1.165398000017211e-3 1.180056902285981e-3 1.194900190846576e-3 1.209930184993034e-3
      1.225149233192519e-3 1.240559713452277e-3 1.256164033691200e-3 1.271964632116073e-3
      1.287963977602545e-3 1.304164570080901e-3 1.320568940926676e-3 1.337179653356190e-3
      1.353999302827053e-3 1.371030517443715e-3 1.388275958368112e-3 1.405738320235473e-3
      1.423420331575368e-3 1.441324755238043e-3 1.459454388826120e-3 1.477812065131736e-3
      1.496400652579160e-3 1.515223055673002e-3 1.534282215452036e-3 1.553581109948756e-3
      1.573122754654692e-3 1.592910202991585e-3 1.612946546788497e-3 1.633234916764910e-3
      1.653778483019910e-3 1.674580455527519e-3 1.695644084638265e-3 1.716972661587051e-3
      1.738569519007418e-3 1.760438031452277e-3 1.782581615921188e-3 1.805003732394279e-3
      1.827707884372865e-3 1.850697619426885e-3 1.873976529749214e-3 1.897548252716949e-3
      1.921416471459765e-3 1.945584915435399e-3 1.970057361012392e-3 1.994837632060158e-3
      2.019929600546458e-3 2.045337187142425e-3 2.071064361835154e-3 2.097115144548033e-3
      2.123493605768861e-3 2.150203867185870e-3 2.177250102331752e-3 2.204636537235774e-3
      2.232367451084106e-3 2.260447176888458e-3 2.288880102163112e-3 2.317670669610493e-3
      2.346823377815338e-3 2.376342781947616e-3 2.406233494474282e-3 2.436500185879976e-3
      2.467147585396814e-3 2.498180481743322e-3 2.529603723872689e-3 2.561422221730431e-3
      2.593640947021569e-3 2.626264933987486e-3 2.659299280192515e-3 2.692749147320461e-3
      2.726619761981116e-3 2.760916416526929e-3 2.795644469879957e-3 2.830809348369185e-3
      2.866416546578421e-3 2.902471628204831e-3 2.938980226928269e-3 2.975948047291570e-3
      3.013380865591873e-3 3.051284530783196e-3 3.089664965390340e-3 3.128528166434296e-3
      3.167880206369300e-3 3.207727234031652e-3 3.248075475600492e-3 3.288931235570657e-3
      3.330300897737759e-3 3.372190926195685e-3 3.414607866346605e-3 3.457558345923715e-3
      3.501049076026833e-3 3.545086852171017e-3 3.589678555348391e-3 3.634831153103296e-3
      3.680551700620994e-3 3.726847341830056e-3 3.773725310518604e-3 3.821192931464628e-3
      3.869257621580471e-3 3.917926891071752e-3 3.967208344610848e-3 4.017109682525133e-3
      4.067638702000189e-3 4.118803298298107e-3 4.170611465991156e-3 4.223071300210941e-3
      4.276190997913285e-3 4.329978859159034e-3 4.384443288410939e-3 4.439592795846876e-3
      4.495435998689587e-3 4.551981622553124e-3 4.609238502806267e-3 4.667215585953043e-3
      4.725921931030648e-3 4.785366711024938e-3 4.845559214303727e-3 4.906508846068122e-3
      4.968225129822084e-3 5.030717708860514e-3 5.093996347776029e-3 5.158070933984694e-3
      5.222951479270978e-3 5.288648121352074e-3 5.355171125461967e-3 5.422530885955395e-3
      5.490737927931976e-3 5.559802908880792e-3 5.629736620345628e-3 5.700549989611180e-3
      5.772254081410470e-3 5.844860099653716e-3 5.918379389178999e-3 5.992823437524876e-3
      6.068203876725363e-3 6.144532485127446e-3 6.221821189231469e-3 6.300082065554711e-3
      6.379327342518311e-3 6.459569402358023e-3 6.540820783058948e-3 6.623094180314625e-3
      6.706402449510772e-3 6.790758607733935e-3 6.876175835805464e-3 6.962667480341025e-3
      7.050247055836040e-3 7.138928246777376e-3 7.228724909781532e-3 7.319651075759797e-3
      7.411720952110596e-3 7.504948924939416e-3 7.599349561306703e-3 7.694937611503944e-3
      7.791728011358452e-3 7.889735884567130e-3 7.988976545059556e-3 8.089465499390853e-3
      8.191218449164575e-3 8.294251293486143e-3 8.398580131447105e-3 8.504221264640643e-3
      8.611191199708756e-3 8.719506650921433e-3 8.829184542788289e-3 8.940242012703070e-3
      9.052696413621394e-3 9.166565316772207e-3 9.281866514403287e-3 9.398618022561347e-3
      9.516838083907073e-3 9.636545170565553e-3 9.757757987012647e-3 9.880495472997525e-3
      1.000477680650208e-2 1.013062140673754e-2 1.025804893717869e-2 1.038707930863645e-2
      1.051773268236886e-2 1.065002947323139e-2 1.078399035286676e-2 1.091963625293495e-2
      1.105698836838385e-2 1.119606816076093e-2 1.133689736156670e-2 1.147949797565031e-2
      1.162389228464783e-2 1.177010285046383e-2 1.191815251879667e-2 1.206806442270825e-2
      1.221986198623854e-2 1.237356892806568e-2 1.252920926521205e-2 1.268680731679699e-2
      1.284638770783669e-2 1.300797537309192e-2 1.317159556096411e-2 1.333727383744053e-2
      1.350503609008895e-2 1.367490853210266e-2 1.384691770639632e-2 1.402109048975337e-2
      1.419745409702559e-2 1.437603608538540e-2 1.455686435863184e-2 1.473996717155048e-2
      1.492537313432836e-2 1.511311121702439e-2 1.530321075409596e-2 1.549570144898247e-2
      1.569061337874664e-2 1.588797699877402e-2 1.608782314753182e-2 1.629018305138735e-2
      1.649508832948729e-2 1.670257099869823e-2 1.691266347860935e-2 1.712539859659809e-2
      1.734080959295945e-2 1.755893012609987e-2 1.777979427779640e-2 1.800343655852210e-2
      1.822989191283836e-2 1.845919572485500e-2 1.869138382375918e-2 1.892649248941374e-2
      1.916455845802599e-2 1.940561892788793e-2 1.964971156518839e-2 1.989687450989856e-2
      2.014714638173140e-2 2.040056628617606e-2 2.065717382060824e-2 2.091700908047722e-2
      2.118011266557102e-2 2.144652568636008e-2 2.171628977042092e-2 2.198944706894053e-2
      2.226604026330255e-2 2.254611257175632e-2 2.282970775616984e-2 2.311687012886765e-2
      2.340764455955476e-2 2.370207648232752e-2 2.400021190277289e-2 2.430209740515688e-2
      2.460778015970341e-2 2.491730792996482e-2 2.523072908028495e-2 2.554809258335620e-2
      2.586944802787159e-2 2.619484562627311e-2 2.652433622259760e-2 2.685797130042103e-2
      2.719580299090314e-2 2.753788408093285e-2 2.788426802137645e-2 2.823500893542941e-2
      2.859016162707309e-2 2.894978158963813e-2 2.931392501447535e-2 2.968264879973570e-2
      3.005601055926085e-2 3.043406863158531e-2 3.081688208905206e-2 3.120451074704264e-2
      3.159701517332350e-2 3.199445669750985e-2 3.239689742064841e-2 3.280440022492094e-2
      3.321702878346968e-2 3.363484757034640e-2 3.405792187058663e-2 3.448631779041051e-2
      3.492010226755212e-2 3.535934308171852e-2 3.580410886518056e-2 3.625446911349685e-2
      3.671049419637240e-2 3.717225536865421e-2 3.763982478146493e-2 3.811327549347652e-2
      3.859268148232606e-2 3.907811765617465e-2 3.956965986541206e-2 4.006738491450854e-2
      4.057137057401560e-2 4.108169559271801e-2 4.159843970993809e-2 4.212168366799551e-2
      4.265150922482337e-2 4.318799916674270e-2 4.373123732139858e-2 4.428130857085774e-2
      4.483829886487212e-2 4.540229523430845e-2 4.597338580474673e-2 4.655165981025068e-2
      4.713720760730999e-2 4.773012068895931e-2 4.833049169907407e-2 4.893841444684588e-2
      4.955398392144106e-2 5.017729630684224e-2 5.080844899687787e-2 5.144754061043995e-2
      5.209467100689316e-2 5.274994130167871e-2 5.341345388211314e-2 5.408531242338718e-2
      5.476562190476487e-2 5.545448862598663e-2 5.615202022387932e-2 5.685832568917407e-2
      5.757351538353691e-2 5.829770105681275e-2 5.903099586448622e-2 5.977351438536313e-2
      6.052537263947277e-2 6.128668810619718e-2 6.205757974262701e-2 6.283816800214865e-2
      6.362857485326600e-2 6.442892379865739e-2 6.523933989447396e-2 6.605994976987965e-2
      6.689088164683677e-2 6.773226536014190e-2 6.858423237771179e-2 6.944691582112640e-2
      7.032045048642903e-2 7.120497286518810e-2 7.210062116582514e-2 7.300753533520905e-2
      7.392585708052407e-2 7.485572989141138e-2 7.579729906238928e-2 7.675071171555659e-2
      7.771611682357986e-2 7.869366523297149e-2 7.968350968765940e-2 8.068580485285324e-2
      8.170070733921202e-2 8.272837572731380e-2 8.376897059243515e-2 8.482265452964100e-2
      8.588959217919001e-2 8.696995025226089e-2 8.806389755700028e-2 8.917160502490034e-2
      9.029324573750673e-2 9.142899495346247e-2 9.257903013589361e-2 9.374353098013682e-2
      9.492267944181833e-2 9.611665976528453e-2 9.732565851238974e-2 9.854986459164827e-2
      9.978946928775033e-2 1.010446662914518e-1 1.023156517298385e-1 1.036026241969707e-1
      1.049057847849149e-1 1.062253371151641e-1 1.075614873704547e-1 1.089144443269826e-1
      1.102844193870246e-1 1.116716266119715e-1 1.130762827557739e-1 1.144986072988124e-1
      1.159388224821907e-1 1.173971533424611e-1 1.188738277467878e-1 1.203690764285504e-1
      1.218831330233977e-1 1.234162341057534e-1 1.249686192257801e-1 1.265405309468117e-1
      1.281322148832522e-1 1.297439197389552e-1 1.313758973460838e-1 1.330284027044587e-1
      1.347016940214049e-1 1.363960327520944e-1 1.381116836404013e-1 1.398489147602677e-1
      1.416079975575899e-1 1.433892068926345e-1 1.451928210829834e-1 1.470191219470236e-1
      1.488683948479810e-1 1.507409287385082e-1 1.526370162058360e-1 1.545569535174880e-1
      1.565010406675757e-1 1.584695814236718e-1 1.604628833742740e-1 1.624812579768679e-1
      1.645250206065911e-1 1.665944906055129e-1 1.686899913325312e-1 1.708118502138973e-1
      1.729603987943791e-1 1.751359727890629e-1 1.773389121358119e-1 1.795695610483812e-1
      1.818282680702011e-1 1.841153861288398e-1 1.864312725911465e-1 1.887762893190929e-1
      1.911508027263140e-1 1.935551838353602e-1 1.959898083356721e-1 1.984550566422804e-1
      2.009513139552494e-1 2.034789703198622e-1 2.060384206875686e-1 2.086300649776963e-1
      2.112543081399374e-1 2.139115602176261e-1 2.166022364118048e-1 2.193267571461036e-1
      2.220855481324306e-1 2.248790404374895e-1 2.277076705501370e-1 2.305718804495825e-1
      2.334721176744503e-1 2.364088353927079e-1 2.393824924724728e-1 2.423935535537142e-1
      2.454424891208517e-1 2.485297755762708e-1 2.516558953147619e-1 2.548213367988934e-1
      2.580265946353383e-1 2.612721696521536e-1 2.645585689770394e-1 2.678863061165770e-1
      2.712559010364637e-1 2.746678802427622e-1 2.781227768641644e-1 2.816211307352967e-1
      2.851634884810696e-1 2.887504036020869e-1 2.923824365611346e-1 2.960601548707512e-1
      2.997841331819055e-1 3.035549533737854e-1 3.073732046447169e-1 3.112394836042304e-1
      3.151543943662780e-1 3.191185486436320e-1 3.231325658434638e-1 3.271970731641265e-1
      3.313127056931592e-1 3.354801065065169e-1 3.396999267690557e-1 3.439728258362776e-1
      3.482994713573540e-1 3.526805393794515e-1 3.571167144533605e-1 3.616086897404624e-1
      3.661571671210354e-1 3.707628573039230e-1 3.754264799375880e-1 3.801487637225537e-1
      3.849304465252696e-1 3.897722754934029e-1 3.946750071725791e-1 3.996394076245994e-1
      4.046662525471329e-1 4.097563273949269e-1 4.149104275025327e-1 4.201293582085769e-1
      4.254139349816017e-1 4.307649835474781e-1 4.361833400184319e-1 4.416698510236863e-1
      4.472253738417466e-1 4.528507765343576e-1 4.585469380821333e-1 4.643147485219054e-1
      4.701551090857905e-1 4.760689323420075e-1 4.820571423374735e-1 4.881206747421817e-1
      4.942604769954077e-1 5.004775084537457e-1 5.067727405410084e-1 5.131471569000184e-1
      5.196017535462992e-1 5.261375390237096e-1 5.327555345620285e-1 5.394567742365213e-1
      5.462423051295230e-1 5.531131874940387e-1 5.600704949194179e-1 5.671153144991016e-1
      5.742487470004797e-1 5.814719070368959e-1 5.887859232417992e-1 5.961919384451035e-1
      6.036911098517528e-1 6.112846092225343e-1 6.189736230571762e-1 6.267593527797315e-1
      6.346430149263101e-1 6.426258413351635e-1 6.507090793391569e-1 6.588939919606760e-1
      6.671818581089680e-1 6.755739727799817e-1 6.840716472587092e-1 6.926762093240742e-1
      7.013890034564082e-1 7.102113910475180e-1 7.191447506134152e-1 7.281904780097085e-1
      7.373499866497043e-1 7.466247077252659e-1 7.560160904304278e-1 7.655256021878464e-1
      7.751547288780820e-1 7.849049750717679e-1 7.947778642647117e-1 8.047749391159337e-1
      8.148977616887199e-1 8.251479136946939e-1 8.355269967409576e-1 8.460366325803562e-1
      8.566784633648691e-1 8.674541519022087e-1 8.783653819156337e-1 8.894138583070298e-1
      9.006013074233142e-1 9.119294773261698e-1 9.234001380651923e-1 9.350150819544615e-1
      9.467761238525872e-1 9.586851014462978e-1 9.707438755375673e-1 9.829543303343835e-1
      9.953183737451525e-1 1.007837937676808e0 1.020514978336690e0 1.033351476538189e0
      1.046349438010266e0 1.059510893710850e0 1.072837900144165e0 1.086332539682086e0
      1.099996920889490e0 1.113833178853745e0 1.127843475518309e0 1.142030000020536e0
      1.156394969033746e0 1.170940627113569e0 1.185669247048677e0 1.200583130215900e0
      1.215684606939823e0 1.230976036856912e0 1.246459809284198e0 1.262138343592627e0
      1.278014089585085e0 1.294089527879178e0 1.310367170294850e0 1.326849560246841e0
      1.343539273142117e0 1.360438916782275e0 1.377551131771013e0 1.394878591926743e0
      1.412424004700360e0 1.430190111598312e0 1.448179688610947e0 1.466395546646270e0
      1.484840531969163e0 1.503517526646106e0 1.522429448995518e0 1.541579254043744e0
      1.560969933986780e0 1.580604518657821e0 1.600486076000665e0 1.620617712549098e0
      1.641002573912293e0 1.661643845266304e0 1.682544751851781e0 1.703708559477896e0
      1.725138575032652e0 1.746838146999581e0 1.768810665980945e0 1.791059565227546e0
      1.813588321175149e0 1.836400453987710e0 1.859499528107395e0 1.882889152811525e0
      1.906572982776553e0 1.930554718649089e0 1.954838107624158e0 1.979426944030696e0
      2.004325069924411e0 2.029536375688136e0 2.055064800639682e0 2.080914333647391e0
      2.107089013753388e0 2.133592930804686e0 2.160430226092255e0 2.187605092998077e0
      2.215121777650397e0 2.242984579587179e0 2.271197852427905e0 2.299766004553865e0
      2.328693499796942e0 2.357984858137126e0 2.387644656408757e0 2.417677529015647e0
      2.448088168655254e0 2.478881327051882e0 2.510061815699186e0 2.541634506611957e0
      2.573604333087378e0 2.605976290475887e0 2.638755436961679e0 2.671946894353085e0
      2.705555848882857e0 2.739587552018507e0 2.774047321282900e0 2.808940541085082e0
      2.844272663561642e0 2.880049209428606e0 2.916275768844044e0 2.952958002281578e0
      2.990101641414804e0 3.027712490012909e0 3.065796424847513e0 3.104359396610905e0
      3.143407430845892e0 3.182946628887254e0 3.222983168815136e0 3.263523306420361e0
      3.304573376181898e0 3.346139792256676e0 3.388229049481763e0 3.430847724389236e0
      3.474002476233765e0 3.517700048033113e0 3.561947267621789e0 3.606751048717862e0
      3.652118392003290e0 3.698056386217766e0 3.744572209266337e0 3.791673129341004e0
      3.839366506056343e0 3.887659791599504e0 3.936560531894616e0 3.986076367781823e0
      4.036215036211240e0 4.086984371451799e0 4.138392306315432e0 4.190446873396560e0
      4.243156206327178e0 4.296528541047810e0 4.350572217094330e0 4.405295678901078e0
      4.460707477120306e0 4.516816269958206e0 4.573630824527830e0 4.631160018218901e0
      4.689412840084988e0 4.748398392248030e0 4.808125891320545e0 4.868604669845796e0
      4.929844177755954e0 4.991853983848732e0 5.054643777282501e0 5.118223369090215e0
      5.182602693712464e0 5.247791810549684e0 5.313800905534017e0 5.380640292720861e0
      5.448320415900432e0 5.516851850229690e0 5.586245303884660e0 5.656511619733664e0
      5.727661777031527e0 5.799706893135057e0 5.872658225240245e0 5.946527172141133e0
      6.021325276010971e0 6.097064224205679e0 6.173755851089982e0 6.251412139886632e0
      6.330045224548725e0 6.409667391655730e0 6.490291082333262e0 6.571928894196999e0
      6.654593583321158e0 6.738298066231574e0 6.823055421924013e0 6.908878893907755e0
      6.995781892274881e0 7.083777995795715e0 7.172880954040438e0 7.263104689527570e0
      7.354463299899355e0 7.446971060124507e0 7.540642424728798e0 7.635492030053496e0
      7.731534696542417e0 7.828785431057619e0 7.927259429224196e0 8.026972077804738e0
      8.127938957103424e0 8.230175843400579e0 8.333698711417702e0 8.438523736813508e0
      8.544667298711520e0 8.652145982259201e0 8.760976581219534e0 8.871176100595049e0
      8.982761759284809e0 9.095750992775047e0 9.210161455863339e0 9.326011025417328e0
      9.443317803167972e0 9.562100118537924e0 9.682376531505657e0 9.804165835505367e0
      9.927487060363609e0 1.005235947527268e1 1.017880259180143e1 1.030683616694410e1
      1.043648020620725e1 1.056775496673581e1 1.070068096047821e1 1.083527895739137e1
      1.097156998868618e1 1.110957535011354e1 1.124931660529196e1 1.139081558907689e1
      1.153409441097239e1 1.167917545858592e1 1.182608140112630e1 1.197483519294596e1
      1.212546007712752e1 1.227797958911556e1 1.243241756039416e1 1.258879812221050e1
      1.274714570934555e1 1.290748506393197e1 1.306984123932009e1 1.323423960399268e1
      1.340070584552863e1 1.356926597461690e1 1.373994632912061e1 1.391277357819236e1
      1.408777472644149e1 1.426497711815340e1 1.444440844156234e1 1.462609673317768e1
      1.481007038216457e1 1.499635813478003e1 1.518498909886435e1 1.537599274838946e1
      1.556939892806424e1 1.576523785799769e1 1.596354013842110e1 1.616433675446920e1
      1.636765908102177e1 1.657353888760604e1 1.678200834336061e1 1.699310002206210e1
      1.720684690721475e1 1.742328239720425e1 1.764244031051630e1 1.786435489102065e1
      1.808906081332206e1 1.831659318817801e1 1.854698756798501e1 1.878027995233368e1
      1.901650679363364e1 1.925570500280953e1 1.949791195506810e1 1.974316549573847e1
      1.999150394618536e1 2.024296610979684e1 2.049759127804764e1 2.075541923663828e1
      2.101649027171188e1 2.128084517614884e1 2.154852525594076e1 2.181957233664476e1
      2.209402876991860e1 2.237193744013839e1 2.265334177109930e1 2.293828573280048e1
      2.322681384831576e1 2.351897120075012e1 2.381480344028431e1 2.411435679130769e1
      2.441767805964071e1 2.472481463984874e1 2.503581452264722e1 2.535072630240063e1
      2.566959918471529e1 2.599248299412772e1 2.631942818189015e1 2.665048583385324e1
      2.698570767844870e1 2.732514609477183e1 2.766885412076565e1 2.801688546150861e1
      2.836929449760568e1 2.872613629368578e1 2.908746660700560e1 2.945334189616162e1
      2.982381932991225e1 3.019895679611016e1 3.057881291074773e1 3.096344702711573e1
      3.135291924507728e1 3.174729042045894e1 3.214662217455911e1 3.255097690377686e1
      3.296041778936137e1 3.337500880728388e1 3.379481473823458e1 3.421990117774416e1
      3.465033454643368e1 3.508618210039280e1 3.552751194168845e1 3.597439302900632e1
      3.642689518842539e1 3.688508912432874e1 3.734904643045113e1 3.781883960106544e1
      3.829454204231050e1 3.877622808366046e1 3.926397298953933e1 3.975785297108108e1
      4.025794519803746e1 4.076432781083653e1 4.127707993279165e1 4.179628168246512e1
      4.232201418618676e1 4.285435959072973e1 4.339340107614669e1 4.393922286876627e1
      4.449191025435415e1 4.505154959143885e1 4.561822832480522e1 4.619203499915843e1
      4.677305927295859e1 4.736139193243068e1 4.795712490574981e1 4.856035127740491e1
      4.917116530274397e1 4.978966242270103e1 5.041593927870949e1 5.105009372780234e1
      5.169222485790232e1 5.234243300330507e1 5.300081976035600e1 5.366748800332551e1
      5.434254190048296e1 5.502608693037304e1 5.571822989829754e1 5.641907895300315e1
      5.712874360358069e1 5.784733473657572e1 5.857496463331455e1 5.931174698744913e1
      6.005779692272109e1 6.081323101095076e1 6.157816729025146e1 6.235272528347292e1