<UPF version="2.0.1">
  <PP_INFO>
Generated using "atomic" code by A. Dal Corso  v.6.3
Author: ADC
Generation date:  4Sep2018
Pseudopotential type: USPP
Element:  I
Functional: PBE
    Suggested minimum cutoff for wavefunctions:  37. Ry
    Suggested minimum cutoff for charge density: 154. Ry
    The Pseudo was generated with a Fully-Relativistic Calculation
    Local Potential by smoothing AE potential with Bessel fncs, cutoff radius:   2.1000
    Pseudopotential contains additional information for spin-orbit calculations.
    Valence configuration:
    nl pn  l   occ       Rcut    Rcut US       E pseu
    5S  1  0  2.00      1.500      1.800    -1.273438
    5P  2  1  2.00      1.800      2.000    -0.567983
    5P  2  1  3.00      1.800      2.000    -0.494751
    Generation configuration:
    5S  1  0  2.00      1.500      1.800    -1.273434
    5S  1  0  0.00      1.500      1.800     6.300000
    5P  2  1  2.00      1.800      2.000    -0.567984
    5P  2  1  3.00      1.800      2.000    -0.494746
    5P  2  1  0.00      1.800      2.000     6.300000
    5P  2  1  0.00      1.800      2.000     6.300000
    5D  3  2  0.00      1.600      2.100     0.500000
    5D  3  2  0.00      1.600      2.100     0.500000
    5D  3  2  0.00      1.600      2.100     4.300000
    5D  3  2  0.00      1.600      2.100     4.300000
    Pseudization used: troullier-martins

    <PP_INPUTFILE>
 &amp;input
   title='I',
   zed=53.,
   rel=2,
   config='[Kr] 5s2 5p5 4d10 5d-1',
   iswitch=3,
   dft='PBE'
 /
 &amp;inputp
   lpaw=.false.,
   use_xsd=.FALSE.,
   pseudotype=3,
   file_pseudopw='I.rel-pbe-n-rrkjus_psl.1.0.0.UPF',
   author='ADC',
   lloc=-1,
   rcloc=2.1,
   which_augfun='PSQ',
   rmatch_augfun_nc=.true.,
   nlcc=.true.,
   new_core_ps=.true.,
   rcore=1.8,
   tm=.true.
 /
6
5S  1  0  2.00  0.00  1.50  1.80  0.0
5S  1  0  0.00  6.30  1.50  1.80  0.0
5P  2  1  5.00  0.00  1.80  2.00  0.0
5P  2  1  0.00  6.30  1.80  2.00  0.0
5D  3  2  0.00  0.50  1.60  2.10  0.0
5D  3  2  0.00  4.30  1.60  2.10  0.0
</PP_INPUTFILE>
  </PP_INFO>
  <!--
 END OF HUMAN READABLE SECTION 
-->
  <PP_HEADER generated="Generated using &quot;atomic&quot; code by A. Dal Corso  v.6.3" author="ADC" date=" 4Sep2018" comment="" element=" I" pseudo_type="USPP" relativistic="full" is_ultrasoft="true" is_paw="false" is_coulomb="false" has_so="true" has_wfc="false" has_gipaw="false" paw_as_gipaw="false" core_correction="true" functional="PBE" z_valence="7.000000000000e0" total_psenergy="-3.329896651414e1" wfc_cutoff="3.683333714528e1" rho_cutoff="1.542844958781e2" l_max="2" l_max_rho="4" l_local="-1" mesh_size="1247" number_of_wfc="3" number_of_proj="10"/>
  <PP_MESH dx="1.250000000000e-2" mesh="1247" xmin="-7.000000000000e0" rmax="1.000000000000e2" zmesh="5.300000000000e1">
    <PP_R>
      1.720532010480219e-5 1.742173638998155e-5 1.764087485691664e-5 1.786276974643876e-5
      1.808745573007585e-5 1.831496791546998e-5 1.854534185186299e-5 1.877861353565116e-5
      1.901481941600963e-5 1.925399640058782e-5 1.949618186127617e-5 1.974141364004564e-5
      1.998973005486057e-5 2.024116990566598e-5 2.049577248045015e-5 2.075357756138336e-5
      2.101462543103402e-5 2.127895687866288e-5 2.154661320659637e-5 2.181763623668034e-5
      2.209206831681461e-5 2.236995232757005e-5 2.265133168888869e-5 2.293625036686820e-5
      2.322475288063171e-5 2.351688430928395e-5 2.381269029895499e-5 2.411221706993254e-5
      2.441551142388392e-5 2.472262075116906e-5 2.503359303824512e-5 2.534847687516466e-5
      2.566732146316781e-5 2.599017662237013e-5 2.631709279954714e-5 2.664812107601664e-5
      2.698331317562027e-5 2.732272147280558e-5 2.766639900080949e-5 2.801439945994503e-5
      2.836677722599194e-5 2.872358735869305e-5 2.908488561035755e-5 2.945072843457231e-5
      2.982117299502296e-5 3.019627717442575e-5 3.057609958357182e-5 3.096069957048540e-5
      3.135013722969687e-5 3.174447341163286e-5 3.214376973212403e-5 3.254808858203288e-5
      3.295749313700226e-5 3.337204736732681e-5 3.379181604794848e-5 3.421686476857765e-5
      3.464725994394165e-5 3.508306882416228e-5 3.552435950526372e-5 3.597120093981276e-5
      3.642366294769262e-5 3.688181622701259e-5 3.734573236515466e-5 3.781548384995923e-5
      3.829114408105158e-5 3.877278738131055e-5 3.926048900848168e-5 3.975432516693649e-5
      4.025437301957940e-5 4.076071069990480e-5 4.127341732420539e-5 4.179257300393429e-5
      4.231825885822270e-5 4.285055702655484e-5 4.338955068160257e-5 4.393532404222101e-5
      4.448796238660816e-5 4.504755206562969e-5 4.561418051631138e-5 4.618793627550158e-5
      4.676890899370488e-5 4.735718944909054e-5 4.795286956167658e-5 4.855604240769245e-5
      4.916680223412261e-5 4.978524447343248e-5 5.041146575848020e-5 5.104556393761559e-5
      5.168763808996922e-5 5.233778854093374e-5 5.299611687783986e-5 5.366272596582958e-5
      5.433771996392911e-5 5.502120434132392e-5 5.571328589383862e-5 5.641407276062377e-5
      5.712367444105312e-5 5.784220181183288e-5 5.856976714432659e-5 5.930648412209774e-5
      6.005246785867296e-5 6.080783491552879e-5 6.157270332030469e-5 6.234719258524493e-5
      6.313142372587307e-5 6.392551927990021e-5 6.472960332637236e-5 6.554380150505762e-5
      6.636824103607789e-5 6.720305073978736e-5 6.804836105690057e-5 6.890430406887441e-5
      6.977101351854589e-5 7.064862483102981e-5 7.153727513487938e-5 7.243710328351252e-5
      7.334824987690812e-5 7.427085728357516e-5 7.520506966279794e-5 7.615103298716148e-5
      7.710889506535973e-5 7.807880556529127e-5 7.906091603744489e-5 8.005537993857999e-5
      8.106235265570453e-5 8.208199153035414e-5 8.311445588317747e-5 8.415990703883022e-5
      8.521850835118240e-5 8.629042522884289e-5 8.737582516100463e-5 8.847487774361531e-5
      8.958775470587694e-5 9.071462993707899e-5 9.185567951376912e-5 9.301108172726511e-5
      9.418101711151353e-5 9.536566847129839e-5 9.656522091080474e-5 9.777986186254198e-5
      9.900978111662988e-5 1.002551708504543e-4 1.015162256586947e-4 1.027931425837306e-4
      1.040861211464297e-4 1.053953633773226e-4 1.067210738481718e-4 1.080634597039356e-4
      1.094227306951347e-4 1.107990992106274e-4 1.121927803107942e-4 1.136039917611426e-4
      1.150329540663328e-4 1.164798905046321e-4 1.179450271628030e-4 1.194285929714292e-4
      1.209308197406865e-4 1.224519421965639e-4 1.239921980175398e-4 1.255518278717203e-4
      1.271310754544428e-4 1.287301875263552e-4 1.303494139519723e-4 1.319890077387172e-4
      1.336492250764552e-4 1.353303253775226e-4 1.370325713172621e-4 1.387562288750648e-4
      1.405015673759309e-4 1.422688595325524e-4 1.440583814879238e-4 1.458704128584919e-4
      1.477052367778448e-4 1.495631399409527e-4 1.514444126489653e-4 1.533493488545700e-4
      1.552782462079251e-4 1.572314061031662e-4 1.592091337255006e-4 1.612117380988933e-4
      1.632395321343516e-4 1.652928326788194e-4 1.673719605646841e-4 1.694772406599078e-4
      1.716090019187891e-4 1.737675774333612e-4 1.759533044854401e-4 1.781665245993248e-4
      1.804075835951605e-4 1.826768316429753e-4 1.849746233173930e-4 1.873013176530380e-4
      1.896572782006337e-4 1.920428730838088e-4 1.944584750566179e-4 1.969044615617831e-4
      1.993812147896727e-4 2.018891217380175e-4 2.044285742723802e-4 2.069999691873866e-4
      2.096037082687228e-4 2.122401983559182e-4 2.149098514059128e-4 2.176130845574269e-4
      2.203503201961406e-4 2.231219860206909e-4 2.259285151095023e-4 2.287703459884547e-4
      2.316479226994045e-4 2.345616948695678e-4 2.375121177817736e-4 2.404996524456051e-4
      2.435247656694316e-4 2.465879301333487e-4 2.496896244630366e-4 2.528303333045439e-4
      2.560105474000176e-4 2.592307636643800e-4 2.624914852629740e-4 2.657932216901837e-4
      2.691364888490426e-4 2.725218091318468e-4 2.759497115017778e-4 2.794207315755547e-4
      2.829354117071267e-4 2.864943010724140e-4 2.900979557551214e-4 2.937469388336243e-4
      2.974418204689526e-4 3.011831779938797e-4 3.049715960031297e-4 3.088076664447251e-4
      3.126919887124765e-4 3.166251697396407e-4 3.206078240937563e-4 3.246405740726676e-4
      3.287240498017644e-4 3.328588893324370e-4 3.370457387417743e-4 3.412852522335153e-4
      3.455780922402675e-4 3.499249295270167e-4 3.543264432959323e-4 3.587833212924953e-4
      3.632962599129610e-4 3.678659643131697e-4 3.724931485187318e-4 3.771785355365930e-4
      3.819228574680074e-4 3.867268556229293e-4 3.915912806358442e-4 3.965168925830572e-4
      4.015044611014561e-4 4.065547655087692e-4 4.116685949253353e-4 4.168467483974046e-4
      4.220900350219924e-4 4.273992740733014e-4 4.327752951307345e-4 4.382189382085203e-4
      4.437310538869643e-4 4.493125034453562e-4 4.549641589965448e-4 4.606869036232082e-4
      4.664816315158378e-4 4.723492481124556e-4 4.782906702400934e-4 4.843068262580459e-4
      4.903986562029310e-4 4.965671119355719e-4 5.028131572897261e-4 5.091377682226883e-4
      5.155419329677843e-4 5.220266521887845e-4 5.285929391362608e-4 5.352418198059075e-4
      5.419743330988573e-4 5.487915309840091e-4 5.556944786624017e-4 5.626842547336549e-4
      5.697619513645000e-4 5.769286744594358e-4 5.841855438335262e-4 5.915336933873752e-4
      5.989742712843009e-4 6.065084401297370e-4 6.141373771528949e-4 6.218622743907050e-4
      6.296843388740769e-4 6.376047928165011e-4 6.456248738050195e-4 6.537458349936043e-4
      6.619689452989630e-4 6.702954895988106e-4 6.787267689326352e-4 6.872641007049856e-4
      6.959088188913210e-4 7.046622742464456e-4 7.135258345155675e-4 7.225008846480124e-4
      7.315888270136226e-4 7.407910816218834e-4 7.501090863437984e-4 7.595442971365632e-4
      7.690981882710608e-4 7.787722525622180e-4 7.885680016022627e-4 7.984869659969116e-4
      8.085306956045319e-4 8.187007597783090e-4 8.289987476114607e-4 8.394262681855380e-4
      8.499849508218457e-4 8.606764453360267e-4 8.715024222958514e-4 8.824645732822448e-4
      8.935646111536025e-4 9.048042703134239e-4 9.161853069813203e-4 9.277094994674261e-4
      9.393786484502632e-4 9.511945772581015e-4 9.631591321538568e-4 9.752741826235740e-4
      9.875416216685355e-4 9.999633661010529e-4 1.012541356843965e-3 1.025277559233915e-3
      1.038173963328439e-3 1.051232584216913e-3 1.064455462335422e-3 1.077844663785572e-3
      1.091402280657330e-3 1.105130431355916e-3 1.119031260932806e-3 1.133106941420905e-3
      1.147359672173924e-3 1.161791680210042e-3 1.176405220559877e-3 1.191202576618837e-3
      1.206186060503917e-3 1.221358013414954e-3 1.236720806000460e-3 1.252276838728031e-3
      1.268028542259430e-3 1.283978377830381e-3 1.300128837635143e-3 1.316482445215919e-3
      1.333041755857163e-3 1.349809356984853e-3 1.366787868570782e-3 1.383979943541927e-3
      1.401388268194979e-3 1.419015562616083e-3 1.436864581105855e-3 1.454938112609749e-3
      1.473238981153833e-3 1.491770046286051e-3 1.510534203523030e-3 1.529534384802514e-3
      1.548773558941487e-3 1.568254732100048e-3 1.587980948251140e-3 1.607955289656168e-3
      1.628180877346613e-3 1.648660871611705e-3 1.669398472492214e-3 1.690396920280466e-3
      1.711659496026652e-3 1.733189522051489e-3 1.754990362465349e-3 1.777065423693900e-3
      1.799418155010371e-3 1.822052049074507e-3 1.844970642478303e-3 1.868177516298609e-3
      1.891676296656675e-3 1.915470655284738e-3 1.939564310099744e-3 1.963961025784276e-3
      1.988664614374799e-3 2.013678935857287e-3 2.039007898770365e-3 2.064655460816019e-3
      2.090625629477999e-3 2.116922462647995e-3 2.143550069259693e-3 2.170512609930801e-3
      2.197814297613152e-3 2.225459398250992e-3 2.253452231447540e-3 2.281797171139938e-3
      2.310498646282678e-3 2.339561141539646e-3 2.368989197984855e-3 2.398787413811992e-3
      2.428960445052910e-3 2.459513006305126e-3 2.490449871468496e-3 2.521775874491142e-3
      2.553495910124768e-3 2.585614934689481e-3 2.618137966848213e-3 2.651070088390909e-3
      2.684416445028559e-3 2.718182247197231e-3 2.752372770872216e-3 2.786993358392393e-3
      2.822049419295003e-3 2.857546431160880e-3 2.893489940470348e-3 2.929885563469869e-3
      2.966738987049578e-3 3.004055969631894e-3 3.041842342071261e-3 3.080104008565253e-3
      3.118846947577105e-3 3.158077212769860e-3 3.197800933952267e-3 3.238024318036582e-3
      3.278753650008399e-3 3.319995293908708e-3 3.361755693828274e-3 3.404041374914545e-3
      3.446858944391222e-3 3.490215092590647e-3 3.534116593999190e-3 3.578570308315761e-3
      3.623583181523665e-3 3.669162246975918e-3 3.715314626494227e-3 3.762047531481796e-3
      3.809368264050103e-3 3.857284218159889e-3 3.905802880776468e-3 3.954931833039581e-3
      4.004678751447983e-3 4.055051409058880e-3 4.106057676702510e-3 4.157705524211963e-3
      4.210003021668487e-3 4.262958340662469e-3 4.316579755570236e-3 4.370875644846961e-3
      4.425854492335808e-3 4.481524888593550e-3 4.537895532232872e-3 4.594975231281524e-3
      4.652772904558615e-3 4.711297583068184e-3 4.770558411410311e-3 4.830564649210001e-3
      4.891325672563992e-3 4.952850975505800e-3 5.015150171489184e-3 5.078232994890262e-3
      5.142109302528540e-3 5.206789075207042e-3 5.272282419271839e-3 5.338599568191189e-3
      5.405750884154530e-3 5.473746859691611e-3 5.542598119311942e-3 5.612315421164920e-3
      5.682909658720798e-3 5.754391862472817e-3 5.826773201660752e-3 5.900064986016112e-3
      5.974278667529309e-3 6.049425842239073e-3 6.125518252044335e-3 6.202567786538947e-3
      6.280586484869428e-3 6.359586537616122e-3 6.439580288697999e-3 6.520580237301406e-3
      6.602599039833122e-3 6.685649511897902e-3 6.769744630300977e-3 6.854897535075688e-3
      6.941121531536648e-3 7.028430092358738e-3 7.116836859682208e-3 7.206355647244322e-3
      7.297000442537764e-3 7.388785408996208e-3 7.481724888207414e-3 7.575833402154091e-3
      7.671125655483007e-3 7.767616537802619e-3 7.865321126009592e-3 7.964254686644633e-3
      8.064432678277864e-3 8.165870753924292e-3 8.268584763489615e-3 8.372590756246790e-3
      8.477904983343805e-3 8.584543900342899e-3 8.692524169791813e-3 8.801862663827333e-3
      8.912576466811597e-3 9.024682878001588e-3 9.138199414252124e-3 9.253143812752951e-3
      9.369534033800186e-3 9.487388263602659e-3 9.606724917123572e-3 9.727562640957817e-3
      9.849920316245592e-3 9.973817061622599e-3 1.009927223620736e-2 1.022630544262617e-2
      1.035493653007597e-2 1.048518559742588e-2 1.061707299635766e-2 1.075061933454572e-2
      1.088584547887711e-2 1.102277255871200e-2 1.116142196918520e-2 1.130181537454916e-2
      1.144397471155912e-2 1.158792219290071e-2 1.173368031066076e-2 1.188127183984171e-2
      1.203071984192026e-2 1.218204766845079e-2 1.233527896471410e-2 1.249043767341197e-2
      1.264754803840830e-2 1.280663460851726e-2 1.296772224133910e-2 1.313083610714419e-2
      1.329600169280592e-2 1.346324480578307e-2 1.363259157815231e-2 1.380406847069136e-2
      1.397770227701355e-2 1.415352012775438e-2 1.433154949481074e-2 1.451181819563342e-2
      1.469435439757368e-2 1.487918662228447e-2 1.506634375017693e-2 1.525585502493307e-2
      1.544775005807514e-2 1.564205883359246e-2 1.583881171262655e-2 1.603803943821507e-2
      1.623977314009544e-2 1.644404433956903e-2 1.665088495442633e-2 1.686032730393426e-2
      1.707240411388604e-2 1.728714852171468e-2 1.750459408167082e-2 1.772477477006558e-2
      1.794772499057951e-2 1.817347957963815e-2 1.840207381185534e-2 1.863354340554494e-2
      1.886792452830188e-2 1.910525380265349e-2 1.934556831178169e-2 1.958890560531746e-2
      1.983530370520802e-2 2.008480111165772e-2 2.033743680914399e-2 2.059325027250853e-2
      2.085228147312544e-2 2.111457088514682e-2 2.138015949182691e-2 2.164908879192589e-2
      2.192140080619403e-2 2.219713808393757e-2 2.247634370966715e-2 2.275906130982983e-2
      2.304533505962585e-2 2.333520968991104e-2 2.362873049418614e-2 2.392594333567397e-2
      2.422689465448569e-2 2.453163147487719e-2 2.484020141259664e-2 2.515265268232460e-2
      2.546903410520763e-2 2.578939511648672e-2 2.611378577322173e-2 2.644225676211271e-2
      2.677485940741997e-2 2.711164567898350e-2 2.745266820034342e-2 2.779798025696256e-2
      2.814763580455228e-2 2.850168947750327e-2 2.886019659742226e-2 2.922321318177610e-2
      2.959079595264470e-2 2.996300234558385e-2 3.033989051859969e-2 3.072151936123606e-2
      3.110794850377601e-2 3.149923832655931e-2 3.189544996941684e-2 3.229664534122387e-2
      3.270288712957352e-2 3.311423881057167e-2 3.353076465875545e-2 3.395252975713603e-2
      3.437960000736812e-2 3.481204214004719e-2 3.524992372513627e-2 3.569331318252397e-2
      3.614227979271503e-2 3.659689370765576e-2 3.705722596169525e-2 3.752334848268475e-2
      3.799533410321655e-2 3.847325657200407e-2 3.895719056540543e-2 3.944721169909164e-2
      3.994339653986179e-2 4.044582261760679e-2 4.095456843742346e-2 4.146971349188119e-2
      4.199133827344282e-2 4.251952428704167e-2 4.305435406281706e-2 4.359591116900952e-2
      4.414428022501871e-2 4.469954691462531e-2 4.526179799937921e-2 4.583112133215639e-2
      4.640760587088586e-2 4.699134169244966e-2 4.758242000675754e-2 4.818093317099862e-2
      4.878697470407259e-2 4.940063930120192e-2 5.002202284872846e-2 5.065122243909570e-2
      5.128833638601972e-2 5.193346423985108e-2 5.258670680312928e-2 5.324816614633395e-2
      5.391794562383332e-2 5.459614989003323e-2 5.528288491573027e-2 5.597825800466922e-2
      5.668237781031004e-2 5.739535435280501e-2 5.811729903618926e-2 5.884832466578859e-2
      5.958854546584470e-2 6.033807709736367e-2 6.109703667618799e-2 6.186554279129572e-2
      6.264371552333116e-2 6.343167646336662e-2 6.422954873190222e-2 6.503745699810334e-2
      6.585552749928003e-2 6.668388806061270e-2 6.752266811512415e-2 6.837199872390453e-2
      6.923201259658956e-2 7.010284411209630e-2 7.098462933962103e-2 7.187750605989929e-2
      7.278161378673533e-2 7.369709378880103e-2 7.462408911170901e-2 7.556274460036470e-2
      7.651320692159766e-2 7.747562458707947e-2 7.845014797652850e-2 7.943692936120678e-2
      8.043612292771362e-2 8.144788480207630e-2 8.247237307414636e-2 8.350974782230070e-2
      8.456017113845405e-2 8.562380715338694e-2 8.670082206239037e-2 8.779138415123526e-2
      8.889566382246688e-2 9.001383362203024e-2 9.114606826623177e-2 9.229254466903786e-2
      9.345344196971912e-2 9.462894156084081e-2 9.581922711660532e-2 9.702448462155267e-2
      9.824490239961982e-2 9.948067114356773e-2 1.007319839447770e-1 1.019990363234182e-1
      1.032820262590039e-1 1.045811542213212e-1 1.058966232017576e-1 1.072286387450179e-1
      1.085774089812402e-1 1.099431446585185e-1 1.113260591758305e-1 1.127263686163834e-1
      1.141442917813764e-1 1.155800502241884e-1 1.170338682849976e-1 1.185059731258333e-1
      1.199965947660723e-1 1.215059661183786e-1 1.230343230250965e-1 1.245819042951025e-1
      1.261489517411183e-1 1.277357102174957e-1 1.293424276584751e-1 1.309693551169252e-1
      1.326167468035717e-1 1.342848601267169e-1 1.359739557324616e-1 1.376842975454309e-1
      1.394161528100123e-1 1.411697921321148e-1 1.429454895214500e-1 1.447435224343477e-1
      1.465641718171090e-1 1.484077221499036e-1 1.502744614912223e-1 1.521646815228844e-1
      1.540786775956160e-1 1.560167487751976e-1 1.579791978891937e-1 1.599663315742713e-1
      1.619784603241112e-1 1.640158985379245e-1 1.660789645695776e-1 1.681679807773347e-1
      1.702832735742289e-1 1.724251734790628e-1 1.745940151680545e-1 1.767901375271308e-1
      1.790138837048779e-1 1.812656011661606e-1 1.835456417464130e-1 1.858543617066147e-1
      1.881921217889571e-1 1.905592872732086e-1 1.929562280337926e-1 1.953833185975792e-1
      1.978409382024070e-1 2.003294708563398e-1 2.028493053976671e-1 2.054008355556632e-1
      2.079844600121057e-1 2.106005824635729e-1 2.132496116845206e-1 2.159319615911532e-1
      2.186480513061019e-1 2.213983052239097e-1 2.241831530773471e-1 2.270030300045573e-1
      2.298583766170466e-1 2.327496390685333e-1 2.356772691246568e-1 2.386417242335702e-1
      2.416434675974159e-1 2.446829682447006e-1 2.477607011035854e-1 2.508771470760903e-1
      2.540327931132398e-1 2.572281322911465e-1 2.604636638880584e-1 2.637398934623707e-1
      2.670573329316190e-1 2.704165006524708e-1 2.738179215017156e-1 2.772621269582819e-1
      2.807496551862802e-1 2.842810511190904e-1 2.878568665445128e-1 2.914776601909816e-1
      2.951439978148711e-1 2.988564522888950e-1 3.026156036916166e-1 3.064220393980917e-1
      3.102763541716427e-1 3.141791502567952e-1 3.181310374733783e-1 3.221326333118087e-1
      3.261845630295785e-1 3.302874597489489e-1 3.344419645558800e-1 3.386487266002010e-1
      3.429084031970390e-1 3.472216599295296e-1 3.515891707528116e-1 3.560116180993375e-1
      3.604896929855031e-1 3.650240951196192e-1 3.696155330112457e-1 3.742647240818930e-1
      3.789723947771258e-1 3.837392806800684e-1 3.885661266263403e-1 3.934536868204422e-1
      3.984027249535967e-1 4.034140143230819e-1 4.084883379530580e-1 4.136264887169146e-1
      4.188292694611635e-1 4.240974931308798e-1 4.294319828967307e-1 4.348335722835962e-1
      4.403031053008061e-1 4.458414365740236e-1 4.514494314787764e-1 4.571279662756789e-1
      4.628779282473467e-1 4.687002158370349e-1 4.745957387890264e-1 4.805654182907753e-1
      4.866101871168502e-1 4.927309897746791e-1 4.989287826521283e-1 5.052045341669463e-1
      5.115592249180737e-1 5.179938478388698e-1 5.245094083522583e-1 5.311069245278237e-1
      5.377874272408928e-1 5.445519603336044e-1 5.514015807780178e-1 5.583373588412638e-1
      5.653603782527741e-1 5.724717363736219e-1 5.796725443679799e-1 5.869639273767483e-1
      5.943470246933579e-1 6.018229899417831e-1 6.093929912568061e-1 6.170582114665316e-1
      6.248198482772134e-1 6.326791144603956e-1 6.406372380424067e-1 6.486954624962495e-1
      6.568550469358877e-1 6.651172663129913e-1 6.734834116161492e-1 6.819547900725836e-1
      6.905327253524158e-1 6.992185577754829e-1 7.080136445207737e-1 7.169193598384869e-1
      7.259370952647574e-1 7.350682598390947e-1 7.443142803245387e-1 7.536766014306026e-1
      7.631566860390082e-1 7.727560154322605e-1 7.824760895251098e-1 7.923184270989059e-1
      8.022845660389205e-1 8.123760635746407e-1 8.225944965230850e-1 8.329414615351942e-1
      8.434185753452992e-1 8.540274750237502e-1 8.647698182327076e-1 8.756472834851506e-1
      8.866615704071576e-1 8.978144000034661e-1 9.091075149263927e-1 9.205426797481218e-1
      9.321216812364186e-1 9.438463286338267e-1 9.557184539403522e-1 9.677399121997302e-1
      9.799125817892735e-1 9.922383647133671e-1 1.004719186900674e0 1.017356998505048e0
      1.030153774210269e0 1.043111513538575e0 1.056232241163097e0 1.069518007224224e0
      1.082970887649929e0 1.096592984480151e0 1.110386426195235e0 1.124353368048509e0
      1.138495992403058e0 1.152816509072705e0 1.167317155667319e0 1.182000197942432e0
      1.196867930153271e0 1.211922675413244e0 1.227166786056925e0 1.242602644007617e0
      1.258232661149532e0 1.274059279704644e0 1.290084972614306e0 1.306312243925635e0
      1.322743629182790e0 1.339381695823150e0 1.356229043578473e0 1.373288304881127e0
      1.390562145275393e0 1.408053263833979e0 1.425764393579749e0 1.443698301912753e0
      1.461857791042660e0 1.480245698426588e0 1.498864897212478e0 1.517718296688025e0
      1.536808842735248e0 1.556139518290814e0 1.575713343812100e0 1.595533377749170e0
      1.615602717022654e0 1.635924497507640e0 1.656501894523678e0 1.677338123330912e0
      1.698436439632487e0 1.719800140083254e0 1.741432562804866e0 1.763337087907392e0
      1.785517138017437e0 1.807976178812960e0 1.830717719564782e0 1.853745313684907e0
      1.877062559281773e0 1.900673099722436e0 1.924580624201881e0 1.948788868319450e0
      1.973301614662533e0 1.998122693397623e0 2.023255982868765e0 2.048705410203577e0
      2.074474951926860e0 2.100568634581931e0 2.126990535359798e0 2.153744782736208e0
      2.180835557116748e0 2.208267091490036e0 2.236043672089119e0 2.264169639061237e0
      2.292649387145943e0 2.321487366361822e0 2.350688082701801e0 2.380256098837211e0
      2.410196034830737e0 2.440512568858282e0 2.471210437939974e0 2.502294438680314e0
      2.533769428017651e0 2.565640323983116e0 2.597912106469033e0 2.630589818007079e0
      2.663678564556170e0 2.697183516300265e0 2.731109908456248e0 2.765463042091909e0
      2.800248284954275e0 2.835471072308321e0 2.871136907786219e0 2.907251364247338e0
      2.943820084648964e0 2.980848782928065e0 3.018343244894088e0 3.056309329132988e0
      3.094752967922679e0 3.133680168159926e0 3.173097012298971e0 3.213009659301908e0
      3.253424345601025e0 3.294347386073292e0 3.335785175027028e0 3.377744187201069e0
      3.420230978776441e0 3.463252188400754e0 3.506814538225553e0 3.550924834956613e0
      3.595589970917547e0 3.640816925126728e0 3.686612764387754e0 3.732984644393693e0
      3.779939810845129e0 3.827485600582357e0 3.875629442731761e0 3.924378859866616e0
      3.973741469182542e0 4.023724983687662e0 4.074337213407813e0 4.125586066606871e0
      4.177479551022399e0 4.230025775116930e0 4.283232949344870e0 4.337109387435450e0
      4.391663507691741e0 4.446903834306012e0 4.502838998691695e0 4.559477740832015e0
      4.616828910645667e0 4.674901469369629e0 4.733704490959332e0 4.793247163506552e0
      4.853538790675000e0 4.914588793154090e0 4.976406710130929e0 5.039002200780796e0
      5.102385045776471e0 5.166565148816425e0 5.231552538172339e0 5.297357368256029e0
      5.363989921206056e0 5.431460608494403e0 5.499779972553211e0 5.568958688422119e0
      5.639007565416238e0 5.709937548815091e0 5.781759721572917e0 5.854485306050310e0
      5.928125665767816e0 6.002692307181473e0 6.078196881480689e0 6.154651186408836e0
      6.232067168106584e0 6.310456922978585e0 6.389832699583539e0 6.470206900548007e0
      6.551592084504436e0 6.634000968053374e0 6.717446427750549e0 6.801941502118825e0
      6.887499393685450e0 6.974133471045080e0 7.061857270948532e0 7.150684500418029e0
      7.240629038888910e0 7.331704940378279e0 7.423926435681065e0 7.517307934593508e0
      7.611864028164813e0 7.707609490976991e0 7.804559283453374e0 7.902728554196307e0
      8.002132642354049e0 8.102787080017620e0 8.204707594647710e0 8.307910111532054e0
      8.412410756273916e0 8.518225857311613e0 8.625371948469981e0 8.733865771543766e0
      8.843724278913529e0 8.954964636194584e0 9.067604224919044e0 9.181660645251835e0
      9.297151718740693e0 9.414095491100793e0 9.532510235034518e0 9.652414453086495e0
      9.773826880534754e0 9.896766488318121e0 1.002125248600040e1 1.014730432477203e1
      1.027494170048924e1 1.040418455675167e1 1.053505308801860e1 1.066756774276425e1
      1.080174922667305e1 1.093761850587484e1 1.107519681022092e1 1.121450563660129e1
      1.135556675230344e1 1.149840219841374e1 1.164303429326120e1 1.178948563590492e1
      1.193777910966517e1 1.208793788569889e1 1.223998542662036e1 1.239394549016717e1
      1.254984213291249e1 1.270769971402395e1 1.286754289906973e1 1.302939666387273e1
      1.319328629841294e1 1.335923741077923e1 1.352727593117057e1 1.369742811594757e1
      1.386972055173536e1 1.404418015957749e1 1.422083419914267e1 1.439971027298399e1
      1.458083633085189e1 1.476424067406145e1 1.494995195991438e1 1.513799920617696e1
      1.532841179561404e1 1.552121948058005e1 1.571645238766809e1 1.591414102241705e1
      1.611431627407833e1 1.631700942044230e1 1.652225213272540e1 1.673007648051904e1
      1.694051493680035e1 1.715360038300627e1 1.736936611417134e1 1.758784584412997e1
      1.780907371078452e1 1.803308428143920e1 1.825991255820145e1 1.848959398345102e1
      1.872216444537785e1 1.895766028358985e1 1.919611829479078e1 1.943757573853007e1
      1.968207034302461e1 1.992964031105368e1 2.018032432592857e1 2.043416155753653e1
      2.069119166846148e1 2.095145482018123e1 2.121499167934265e1 2.148184342411625e1
      2.175205175062997e1 2.202565887948463e1 2.230270756235079e1 2.258324108864874e1
      2.286730329231280e1 2.315493855864013e1 2.344619183122634e1 2.374110861898786e1
      2.403973500327272e1 2.434211764506110e1 2.464830379225591e1 2.495834128706561e1
      2.527227857347961e1 2.559016470483752e1 2.591204935149420e1 2.623798280858047e1
      2.656801600386218e1 2.690220050569759e1 2.724058853109492e1 2.758323295387169e1
      2.793018731291597e1 2.828150582055231e1 2.863724337101232e1 2.899745554901193e1
      2.936219863843691e1 2.973152963113694e1 3.010550623583112e1 3.048418688712482e1
      3.086763075464013e1 3.125589775226161e1 3.164904854749743e1 3.204714457095928e1
      3.245024802596083e1 3.285842189823693e1 3.327172996578565e1 3.369023680883334e1
      3.411400781992572e1 3.454310921414552e1 3.497760803945846e1 3.541757218719013e1
      3.586307040263360e1 3.631417229579146e1 3.677094835225236e1 3.723346994420430e1
      3.770180934158719e1 3.817603972338455e1 3.865623518905845e1 3.914247077012742e1
      3.963482244189015e1 4.013336713529715e1 4.063818274897094e1 4.114934816137829e1
      4.166694324315492e1 4.219104886958528e1 4.272174693323994e1 4.325912035677091e1
      4.380325310586900e1 4.435423020238336e1 4.491213773760616e1 4.547706288572498e1
      4.604909391744341e1 4.662832021377406e1 4.721483228000426e1 4.780872175983744e1
      4.841008144971328e1 4.901900531330662e1 4.963558849621012e1 5.025992734080061e1
      5.089211940129264e1 5.153226345898203e1 5.218045953768001e1 5.283680891934271e1
      5.350141415989648e1 5.417437910526210e1 5.485580890758166e1 5.554581004164794e1
      5.624449032154205e1 5.695195891747931e1 5.766832637286697e1 5.839370462157763e1
      5.912820700543822e1 5.987194829194068e1 6.062504469217430e1 6.138761387898356e1
      6.215977500535558e1 6.294164872303714e1 6.373335720138745e1 6.453502414646711e1
      6.534677482036708e1 6.616873606078189e1 6.700103630082741e1 6.784380558910960e1
      6.869717561004450e1 6.956127970443385e1 7.043625289030067e1 7.132223188398513e1
      7.221935512150766e1 7.312776278019950e1 7.404759680060519e1 7.497900090866212e1