<UPF version="2.0.1">
  <PP_INFO>
Generated using "atomic" code by A. Dal Corso  v.6.3
Author: ADC
Generation date:  6Sep2018
Pseudopotential type: PAW
Element: Na
Functional:  SLA  PW   PBX  PBC
    Suggested minimum cutoff for wavefunctions:  66. Ry
    Suggested minimum cutoff for charge density: 323. Ry
    The Pseudo was generated with a Scalar-Relativistic Calculation
    Local Potential by smoothing AE potential with Bessel fncs, cutoff radius:   1.0000
    Pseudopotential contains additional information for GIPAW reconstruction.
    Valence configuration:
    nl pn  l   occ       Rcut    Rcut US       E pseu
    2S  1  0  2.00      1.000      1.250    -4.171242
    3S  2  0  1.00      1.000      1.250    -0.201676
    2P  2  1  6.00      0.900      1.300    -2.107391
    Generation configuration:
    2S  1  0  2.00      1.000      1.250    -4.171253
    3S  2  0  1.00      1.000      1.250    -0.201678
    2P  2  1  6.00      0.900      1.300    -2.107397
    3P  2  1  0.00      0.900      1.300    -1.800000
    Pseudization used: troullier-martins

    <PP_INPUTFILE>
 &amp;input
   title='Na',
   zed=11.,
   rel=1,
   config='[Ne] 3s1 3p0',
   iswitch=3,
   dft='PBE'
 /
 &amp;inputp
   lpaw = .true.,
   use_xsd=.FALSE.,
   pseudotype=3,
   file_pseudopw='Na.pbe-spnl-kjpaw_psl.1.0.0.UPF',
   author='ADC',
   lloc=-1,
   rcloc=1.0
   which_augfun='PSQ',
   rmatch_augfun_nc=.true.,
   nlcc=.true.,
   new_core_ps=.true.,
   rcore=0.7,
   tm=.true.
 /
4
2S  1  0  2.00  0.00  1.00  1.25  0.0
3S  2  0  1.00  0.00  1.00  1.25  0.0
2P  2  1  6.00  0.00  0.90  1.30  0.0
3P  2  1  0.00 -1.80  0.90  1.30  0.0
</PP_INPUTFILE>
  </PP_INFO>
  <!--
 END OF HUMAN READABLE SECTION 
-->
  <PP_HEADER generated="Generated using &quot;atomic&quot; code by A. Dal Corso  v.6.3" author="ADC" date=" 6Sep2018" comment="" element="Na" pseudo_type="PAW" relativistic="scalar" is_ultrasoft="true" is_paw="true" is_coulomb="false" has_so="false" has_wfc="true" has_gipaw="true" paw_as_gipaw="true" core_correction="true" functional=" SLA  PW   PBX  PBC" z_valence="9.000000000000e0" total_psenergy="-1.091561524110e2" wfc_cutoff="6.610405946263e1" rho_cutoff="3.234229830449e2" l_max="1" l_max_rho="2" l_local="-1" mesh_size="1121" number_of_wfc="3" number_of_proj="4"/>
  <PP_MESH dx="1.250000000000e-2" mesh="1121" xmin="-7.000000000000e0" rmax="1.000000000000e2" zmesh="1.100000000000e1">
    <PP_R>
      8.289836050495602e-5 8.394109351536565e-5 8.499694249241657e-5 8.606607241465944e-5
      8.714865033581999e-5 8.824484541090081e-5 8.935482892261263e-5 9.047877430813740e-5
      9.161685718622822e-5 9.276925538465042e-5 9.393614896796700e-5 9.511772026567440e-5
      9.631415390069183e-5 9.752563681820879e-5 9.875235831489617e-5 9.999451006848348e-5
      1.012522861677094e-4 1.025258831426484e-4 1.038154999954189e-4 1.051213382312780e-4
      1.064436018901068e-4 1.077824975782921e-4 1.091382345010092e-4 1.105110244949104e-4
      1.119010820612255e-4 1.133086243992772e-4 1.147338714404195e-4 1.161770458824022e-4
      1.176383732241680e-4 1.191180818010873e-4 1.206164028206356e-4 1.221335703985206e-4
      1.236698215952631e-4 1.252253964532379e-4 1.268005380341817e-4 1.283954924571711e-4
      1.300105089370795e-4 1.316458398235178e-4 1.333017406402639e-4 1.349784701251897e-4
      1.366762902706884e-4 1.383954663646120e-4 1.401362670317228e-4 1.418989642756666e-4
      1.436838335214743e-4 1.454911536585968e-4 1.473212070844824e-4 1.491742797487023e-4
      1.510506611976303e-4 1.529506446196855e-4 1.548745268911431e-4 1.568226086225220e-4
      1.587951942055563e-4 1.607925918607564e-4 1.628151136855700e-4 1.648630757031468e-4
      1.669367979117188e-4 1.690366043346001e-4 1.711628230708161e-4 1.733157863463706e-4
      1.754958305661554e-4 1.777032963665152e-4 1.799385286684724e-4 1.822018767316217e-4
      1.844936942087031e-4 1.868143392008599e-4 1.891641743135936e-4 1.915435667134213e-4
      1.939528881852462e-4 1.963925151904504e-4 1.988628289257168e-4 2.013642153825924e-4
      2.038970654078003e-4 2.064617747643097e-4 2.090587441931760e-4 2.116883794761558e-4
      2.143510914991121e-4 2.170472963162157e-4 2.197774152149549e-4 2.225418747819621e-4
      2.253411069696690e-4 2.281755491637998e-4 2.310456442517144e-4 2.339518406916091e-4
      2.368945925825908e-4 2.398743597356292e-4 2.428916077454046e-4 2.459468080630570e-4
      2.490404380698517e-4 2.521729811517717e-4 2.553449267750467e-4 2.585567705626334e-4
      2.618090143716584e-4 2.651021663718335e-4 2.684367411248588e-4 2.718132596648236e-4
      2.752322495796196e-4 2.786942450933767e-4 2.821997871499372e-4 2.857494234973800e-4
      2.893437087736061e-4 2.929832045930024e-4 2.966684796341953e-4 3.004001097289075e-4
      3.041786779519338e-4 3.080047747122465e-4 3.118789978452486e-4 3.158019527061867e-4
      3.197742522647389e-4 3.237965172007936e-4 3.278693760014300e-4 3.319934650591221e-4
      3.361694287711756e-4 3.403979196404164e-4 3.446795983771461e-4 3.490151340023785e-4
      3.534052039523755e-4 3.578504941844985e-4 3.623516992843900e-4 3.669095225745053e-4
      3.715246762240060e-4 3.761978813600396e-4 3.809298681804163e-4 3.857213760677037e-4
      3.905731537047581e-4 3.954859591917063e-4 4.004605601644005e-4 4.054977339143638e-4
      4.105982675102425e-4 4.157629579207884e-4 4.209926121393860e-4 4.262880473101465e-4
      4.316500908555890e-4 4.370795806059260e-4 4.425773649299785e-4 4.481443028677320e-4
      4.537812642645653e-4 4.594891299071650e-4 4.652687916611501e-4 4.711211526104296e-4
      4.770471271983077e-4 4.830476413703705e-4 4.891236327191655e-4 4.952760506307022e-4
      5.015058564327973e-4 5.078140235452818e-4 5.142015376321008e-4 5.206693967553259e-4
      5.272186115311038e-4 5.338502052875684e-4 5.405652142247358e-4 5.473646875764144e-4
      5.542496877741489e-4 5.612212906132273e-4 5.682805854207783e-4 5.754286752259770e-4
      5.826666769323985e-4 5.899957214925352e-4 5.974169540845102e-4 6.049315342910158e-4
      6.125406362804970e-4 6.202454489906208e-4 6.280471763140484e-4 6.359470372865466e-4
      6.439462662774660e-4 6.520461131826090e-4 6.602478436195355e-4 6.685527391253124e-4
      6.769620973567579e-4 6.854772322932067e-4 6.940994744418147e-4 7.028301710454610e-4
      7.116706862932521e-4 7.206224015336812e-4 7.296867154904692e-4 7.388650444811101e-4
      7.481588226381845e-4 7.575695021334372e-4 7.670985534046847e-4 7.767474653855769e-4
      7.865177457382394e-4 7.964109210888570e-4 8.064285372662052e-4 8.165721595431924e-4
      8.268433728814387e-4 8.372437821789218e-4 8.477750125207569e-4 8.584387094331101e-4
      8.692365391403184e-4 8.801701888252447e-4 8.912413668928934e-4 9.024518032373647e-4
      9.138032495121442e-4 9.252974794038062e-4 9.369362889091590e-4 9.487214966158639e-4
      9.606549439866049e-4 9.727384956468116e-4 9.849740396760136e-4 9.973634879028625e-4
      1.009908776203846e-3 1.022611864805788e-3 1.035474738592125e-3 1.048499407413056e-3
      1.061687906399587e-3 1.075042296281511e-3 1.088564663709420e-3 1.102257121580736e-3
      1.116121809369858e-3 1.130160893462463e-3 1.144376567494000e-3 1.158771052692461e-3
      1.173346598225443e-3 1.188105481551589e-3 1.203050008776449e-3 1.218182515012803e-3
      1.233505364745539e-3 1.249020952201104e-3 1.264731701721602e-3 1.280640068143612e-3
      1.296748537181751e-3 1.313059625817080e-3 1.329575882690384e-3 1.346299888500400e-3
      1.363234256407065e-3 1.380381632439813e-3 1.397744695911039e-3 1.415326159834736e-3
      1.433128771350408e-3 1.451155312152329e-3 1.469408598924171e-3 1.487891483779129e-3
      1.506606854705569e-3 1.525557636018269e-3 1.544746788815371e-3 1.564177311441035e-3
      1.583852239953956e-3 1.603774648601742e-3 1.623947650301276e-3 1.644374397125119e-3
      1.665058080794016e-3 1.686001933175626e-3 1.707209226789492e-3 1.728683275318387e-3
      1.750427434126085e-3 1.772445100781636e-3 1.794739715590253e-3 1.817314762130857e-3
      1.840173767800399e-3 1.863320304365024e-3 1.886757988518158e-3 1.910490482445639e-3
      1.934521494397925e-3 1.958854779269525e-3 1.983494139185707e-3 2.008443424096586e-3
      2.033706532378691e-3 2.059287411444088e-3 2.085190058357175e-3 2.111418520459234e-3
      2.137976896000828e-3 2.164869334782171e-3 2.192100038801534e-3 2.219673262911821e-3
      2.247593315485400e-3 2.275864559087286e-3 2.304491411156813e-3 2.333478344697857e-3
      2.362829888977759e-3 2.392550630235028e-3 2.422645212395953e-3 2.453118337800226e-3
      2.483974767935688e-3 2.515219324182326e-3 2.546856888565620e-3 2.578892404519372e-3
      2.611330877658131e-3 2.644177376559316e-3 2.677437033555208e-3 2.711115045534883e-3
      2.745216674756228e-3 2.779747249668191e-3 2.814712165743354e-3 2.850116886320990e-3
      2.885966943460723e-3 2.922267938806915e-3 2.959025544463949e-3 2.996245503882488e-3
      3.033933632756916e-3 3.072095819934051e-3 3.110738028333275e-3 3.149866295878275e-3
      3.189486736440458e-3 3.229605540794270e-3 3.270228977584515e-3 3.311363394305840e-3
      3.353015218294547e-3 3.395190957732874e-3 3.437897202665917e-3 3.481140626031332e-3
      3.524927984702000e-3 3.569266120541802e-3 3.614161961474665e-3 3.659622522567077e-3
      3.705654907124202e-3 3.752266307799777e-3 3.799464007719993e-3 3.847255381621484e-3
      3.895647897003654e-3 3.944649115295489e-3 3.994266693037038e-3 4.044508383075774e-3
      4.095382035777984e-3 4.146895600255400e-3 4.199057125607284e-3 4.251874762178089e-3
      4.305356762830993e-3 4.359511484237407e-3 4.414347388182724e-3 4.469873042888509e-3
      4.526097124351268e-3 4.583028417698126e-3 4.640675818559492e-3 4.699048334459038e-3
      4.758155086221127e-3 4.818005309395982e-3 4.878608355702739e-3 4.939973694490681e-3
      5.002110914218843e-3 5.065029723954218e-3 5.128739954888849e-3 5.193251561875936e-3
      5.258574624985316e-3 5.324719351078505e-3 5.391696075403519e-3 5.459515263209813e-3
      5.528187511383452e-3 5.597723550102931e-3 5.668134244515768e-3 5.739430596436216e-3
      5.811623746064324e-3 5.884724973726597e-3 5.958745701638578e-3 6.033697495689604e-3
      6.109592067249978e-3 6.186441275000927e-3 6.264257126787508e-3 6.343051781494879e-3
      6.422837550948147e-3 6.503626901836110e-3 6.585432457659223e-3 6.668267000702012e-3
      6.752143474030357e-3 6.837074983513858e-3 6.923074799873666e-3 7.010156360756064e-3
      7.098333272832105e-3 7.187619313923699e-3 7.278028435156417e-3 7.369574763139386e-3
      7.462272602172617e-3 7.556136436482052e-3 7.651180932482764e-3 7.747420941070626e-3
      7.844871499942773e-3 7.943547835947308e-3 8.043465367462483e-3 8.144639706805885e-3
      8.247086662673869e-3 8.350822242611716e-3 8.455862655514862e-3 8.562224314161517e-3
      8.669923837777240e-3 8.778978054631715e-3 8.889404004668187e-3 9.001218942166028e-3
      9.114440338436703e-3 9.229085884553735e-3 9.345173494116949e-3 9.462721306051513e-3
      9.581747687442213e-3 9.702271236403291e-3 9.824310784984483e-3 9.947885402113544e-3
      1.007301439657582e-2 1.019971732003125e-2 1.032801397006943e-2 1.045792439330295e-2
      1.058946888849973e-2 1.072266800975478e-2 1.085754256970178e-2 1.099411364276515e-2
      1.113240256845290e-2 1.127243095469103e-2 1.141422068119975e-2 1.155779390291233e-2
      1.170317305343675e-2 1.185038084856106e-2 1.199944028980275e-2 1.215037466800277e-2
      1.230320756696479e-2 1.245796286714022e-2 1.261466474935957e-2 1.277333769861074e-2
      1.293400650786488e-2 1.309669628195030e-2 1.326143244147522e-2 1.342824072679971e-2
      1.359714720205774e-2 1.376817825922970e-2 1.394136062226623e-2 1.411672135126391e-2
      1.429428784669342e-2 1.447408785368094e-2 1.465614946634335e-2 1.484050113217803e-2
      1.502717165650787e-2 1.521619020698205e-2 1.540758631813365e-2 1.560138989599444e-2
      1.579763122276774e-2 1.599634096156014e-2 1.619755016117259e-2 1.640129026095190e-2
      1.660759309570316e-2 1.681649090066403e-2 1.702801631654155e-2 1.724220239461230e-2
      1.745908260188675e-2 1.767869082633852e-2 1.790106138219946e-2 1.812622901532138e-2
      1.835422890860504e-2 1.858509668749764e-2 1.881886842555934e-2 1.905558065009980e-2
      1.929527034788574e-2 1.953797497092006e-2 1.978373244229391e-2 2.003258116211218e-2
      2.028456001349362e-2 2.053970836864644e-2 2.079806609502023e-2 2.105967356153535e-2
      2.132457164489071e-2 2.159280173595074e-2 2.186440574621292e-2 2.213942611435643e-2
      2.241790581287332e-2 2.269988835478307e-2 2.298541780043149e-2 2.327453876437546e-2
      2.356729642235378e-2 2.386373651834613e-2 2.416390537172061e-2 2.446784988447126e-2
      2.477561754854660e-2 2.508725645327029e-2 2.540281529285522e-2 2.572234337401209e-2
      2.604589062365364e-2 2.637350759669594e-2 2.670524548395754e-2 2.704115612015825e-2
      2.738129199201839e-2 2.772570624645994e-2 2.807445269891090e-2 2.842758584171399e-2
      2.878516085264122e-2 2.914723360351553e-2 2.951386066894088e-2 2.988509933514219e-2
      3.026100760891634e-2 3.064164422669586e-2 3.102706866372672e-2 3.141734114336132e-2
      3.181252264646867e-2 3.221267492096263e-2 3.261786049145016e-2 3.302814266900105e-2
      3.344358556104021e-2 3.386425408136482e-2 3.429021396028700e-2 3.472153175490447e-2
      3.515827485950013e-2 3.560051151607264e-2 3.604831082499937e-2 3.650174275583335e-2
      3.696087815823630e-2 3.742578877304898e-2 3.789654724350076e-2 3.837322712656050e-2
      3.885590290442971e-2 3.934464999618068e-2 3.983954476954088e-2 4.034066455282544e-2
      4.084808764702014e-2 4.136189333801579e-2 4.188216190899691e-2 4.240897465298624e-2
      4.294241388554679e-2 4.348256295764402e-2 4.402950626866933e-2 4.458332927962785e-2
      4.514411852649181e-2 4.571196163372190e-2 4.628694732795902e-2 4.686916545188766e-2
      4.745870697827421e-2 4.805566402418161e-2 4.866012986536275e-2 4.927219895083520e-2
      4.989196691763878e-2 5.051953060577925e-2 5.115498807335966e-2 5.179843861190210e-2
      5.244998276186243e-2 5.310972232833963e-2 5.377776039698322e-2 5.445420135010053e-2
      5.513915088296669e-2 5.583271602033982e-2 5.653500513318367e-2 5.724612795560093e-2
      5.796619560197945e-2 5.869532058435382e-2 5.943361682998614e-2 6.018119969916675e-2
      6.093818600323997e-2 6.170469402285590e-2 6.248084352645202e-2 6.326675578896746e-2
      6.406255361079215e-2 6.486836133695482e-2 6.568430487655207e-2 6.651051172242197e-2
      6.734711097106527e-2 6.819423334281654e-2 6.905201120226990e-2 6.992057857896100e-2
      7.080007118830954e-2 7.169062645282516e-2 7.259238352357976e-2 7.350548330195027e-2
      7.443006846163478e-2 7.536628347094548e-2 7.631427461538250e-2 7.727419002049077e-2
      7.824617967500530e-2 7.923039545428713e-2 8.022699114405413e-2 8.123612246441054e-2
      8.225794709417816e-2 8.329262469553438e-2 8.434031693895941e-2 8.540118752849780e-2
      8.647540222733763e-2 8.756312888371111e-2 8.866453745712121e-2 8.977980004489837e-2
      9.090909090909092e-2 9.205258650369407e-2 9.321046550222084e-2 9.438290882562050e-2
      9.557009967054771e-2 9.677222353798721e-2 9.798946826223926e-2 9.922202404026837e-2
      1.004700834614225e-1 1.017338415375256e-1 1.030134957333479e-1 1.043092459974611e-1
      1.056212947934803e-1 1.069498471316992e-1 1.082951106011235e-1 1.096572954019073e-1
      1.110366143781973e-1 1.124332830513896e-1 1.138475196538059e-1 1.152795451627928e-1
      1.167295833352492e-1 1.181978607425901e-1 1.196846068061475e-1 1.211900538330185e-1
      1.227144370523640e-1 1.242579946521633e-1 1.258209678164320e-1 1.274036007629067e-1
      1.290061407812053e-1 1.306288382714660e-1 1.322719467834728e-1 1.339357230562741e-1
      1.356204270582974e-1 1.373263220279703e-1 1.390536745148527e-1 1.408027544212849e-1
      1.425738350445608e-1 1.443671931196313e-1 1.461831088623440e-1 1.480218660132283e-1
      1.498837518818299e-1 1.517690573916039e-1 1.536780771253720e-1 1.556111093713514e-1
      1.575684561697633e-1 1.595504233600271e-1 1.615573206285490e-1 1.635894615571099e-1
      1.656471636718646e-1 1.677307484929546e-1 1.698405415847475e-1 1.719768726067064e-1
      1.741400753648997e-1 1.763304878641596e-1 1.785484523608953e-1 1.807943154165720e-1
      1.830684279518615e-1 1.853711453014742e-1 1.877028272696807e-1 1.900638381865325e-1
      1.924545469647886e-1 1.948753271575599e-1 1.973265570166767e-1 1.998086195517912e-1
      2.023219025902245e-1 2.048667988375644e-1 2.074437059390276e-1 2.100530265415913e-1
      2.126951683569084e-1 2.153705442250128e-1 2.180795721788271e-1 2.208226755094808e-1
      2.236002828324501e-1 2.264128281545302e-1 2.292607509416499e-1 2.321444961875388e-1
      2.350645144832588e-1 2.380212620876093e-1 2.410152009984189e-1 2.440467990247338e-1
      2.471165298599132e-1 2.502248731556461e-1 2.533723145968956e-1 2.565593459777908e-1
      2.597864652784696e-1 2.630541767428874e-1 2.663629909576095e-1 2.697134249315881e-1
      2.731060021769483e-1 2.765412527907878e-1 2.800197135380028e-1 2.835419279351632e-1
      2.871084463354335e-1 2.907198260145704e-1 2.943766312579967e-1 2.980794334489703e-1
      3.018288111578683e-1 3.056253502325846e-1 3.094696438900744e-1 3.133622928090434e-1
      3.173039052238038e-1 3.212950970193158e-1 3.253364918274164e-1 3.294287211242674e-1
      3.335724243290224e-1 3.377682489037368e-1 3.420168504545376e-1 3.463188928340602e-1
      3.506750482451793e-1 3.550859973460414e-1 3.595524293564161e-1 3.640750421653935e-1
      3.686545424404251e-1 3.732916457377465e-1 3.779870766141828e-1 3.827415687403600e-1
      3.875558650153474e-1 3.924307176827313e-1 3.973668884481597e-1 4.023651485983580e-1
      4.074262791216422e-1 4.125510708299553e-1 4.177403244824264e-1 4.229948509104972e-1
      4.283154711446132e-1 4.337030165425093e-1 4.391583289191167e-1 4.446822606780914e-1
      4.502756749450104e-1 4.559394457022330e-1 4.616744579254620e-1 4.674816077220266e-1
      4.733618024708955e-1 4.793159609644627e-1 4.853450135521072e-1 4.914499022855606e-1
      4.976315810661095e-1 5.038910157936386e-1 5.102291845175595e-1 5.166470775896316e-1
      5.231456978187028e-1 5.297260606274072e-1 5.363891942108197e-1 5.431361396971202e-1
      5.499679513102683e-1 5.568856965347261e-1 5.638904562822611e-1 5.709833250608333e-1
      5.781654111456208e-1 5.854378367521877e-1 5.928017382118283e-1 6.002582661491304e-1
      6.078085856617520e-1 6.154538765024794e-1 6.231953332635620e-1 6.310341655633669e-1
      6.389715982353909e-1 6.470088715196360e-1 6.551472412564059e-1 6.633879790825307e-1
      6.717323726300592e-1 6.801817257274624e-1 6.887373586033498e-1 6.974006080927662e-1
      7.061728278460707e-1 7.150553885404447e-1 7.240496780940710e-1 7.331571018829886e-1
      7.423790829606951e-1 7.517170622804976e-1 7.611724989206604e-1 7.707468703123983e-1
      7.804416724707179e-1 7.902584202281819e-1 8.001986474716013e-1 8.102639073817034e-1
      8.204557726758301e-1 8.307758358536661e-1 8.412257094460809e-1 8.518070262670850e-1
      8.625214396689568e-1 8.733706238005919e-1 8.843562738690807e-1 8.954801064045983e-1
      9.067438595286117e-1 9.181492932254594e-1 9.296981896173644e-1 9.413923532428814e-1
      9.532336113388700e-1 9.652238141260010e-1 9.773648350978505e-1 9.896585713136499e-1
      1.002106943694691e0 1.014711897324488e0 1.027475401752690e0 1.040399451302829e0
      1.053486065383946e0 1.066737288806110e0 1.080155192099945e0 1.093741871840140e0
      1.107499450973043e0 1.121430079148388e0 1.135535933055165e0 1.149819216761747e0
      1.164282162060277e0 1.178927028815376e0 1.193756105317275e0 1.208771708639344e0
      1.223976185000155e0 1.239371910130070e0 1.254961289642463e0 1.270746759409604e0
      1.286730785943255e0 1.302915866780086e0 1.319304530871902e0 1.335899338980813e0
      1.352702884079350e0 1.369717791755617e0 1.386946720623562e0 1.404392362738366e0
      1.422057444017106e0 1.439944724664676e0 1.458056999605061e0 1.476397098918078e0
      1.494967888281551e0 1.513772269419104e0 1.532813180553550e0 1.552093596865987e0
      1.571616530960697e0 1.591385033335845e0 1.611402192860149e0 1.631671137255514e0
      1.652195033585733e0 1.672977088751370e0 1.694020549990820e0 1.715328705387717e0
      1.736904884384697e0 1.758752458303620e0 1.780874840872365e0 1.803275488758212e0
      1.825957902107970e0 1.848925625094875e0 1.872182246472367e0 1.895731400134858e0
      1.919576765685512e0 1.943722069011213e0 1.968171082864734e0 1.992927627454225e0
      2.017995571040151e0 2.043378830539693e0 2.069081372138794e0 2.095107211911873e0
      2.121460416449338e0 2.148145103493023e0 2.175165442579559e0 2.202525655691907e0
      2.230230017919034e0 2.258282858123895e0 2.286688559619854e0 2.315451560855554e0
      2.344576356108460e0 2.374067496187090e0 2.403929589142073e0 2.434167300986196e0
      2.464785356423446e0 2.495788539587282e0 2.527181694788154e0 2.558969727270423e0
      2.591157603978847e0 2.623750354334640e0 2.656753071021358e0 2.690170910780635e0
      2.724009095217911e0 2.758272911618360e0 2.792967713772994e0 2.828098922815242e0
      2.863672028067997e0 2.899692587901318e0 2.936166230600975e0 2.973098655247834e0
      3.010495632608392e0 3.048363006036451e0 3.086706692386141e0 3.125532682936475e0
      3.164847044327459e0 3.204655919508049e0 3.244965528695992e0 3.285782170349721e0
      3.327112222152549e0 3.368962142009145e0 3.411338469054637e0 3.454247824676346e0
      3.497696913548376e0 3.541692524679275e0 3.586241532472778e0 3.631350897801994e0
      3.677027669097039e0 3.723278983446346e0 3.770112067711892e0 3.817534239658364e0
      3.865552909096617e0 3.914175579041451e0 3.963409846883955e0 4.013263405578662e0
      4.063744044845532e0 4.114859652387160e0 4.166618215121228e0 4.219027820428452e0
      4.272096657416305e0 4.325833018198519e0 4.380245299190801e0 4.435342002422769e0
      4.491131736866381e0 4.547623219781165e0 4.604825278076242e0 4.662746849689610e0
      4.721396984984681e0 4.780784848164405e0 4.840919718703245e0 4.901810992797052e0
      4.963468184831294e0 5.025900928867681e0 5.089118980149468e0 5.153132216625806e0
      5.217950640495112e0 5.283584379767999e0 5.350043689849769e0 5.417338955142817e0
      5.485480690669278e0 5.554479543713943e0 5.624346295487990e0 5.695091862813538e0
      5.766727299829395e0 5.839263799718359e0 5.912712696456092e0 5.987085466582155e0
      6.062393730993201e0 6.138649256758741e0 6.215863958959838e0 6.294049902550785e0
      6.373219304244350e0 6.453384534420630e0 6.534558119059915e0 6.616752741699977e0
      6.699981245417804e0 6.784256634836447e0 6.869592078156971e0 6.956000909215990e0
      7.043496629569179e0 7.132092910600832e0 7.221803595660121e0 7.312642702224119e0
      7.404624424088013e0 7.497763133583010e0 7.592073383821934e0 7.687569910973273e0
      7.784267636563697e0 7.882181669809537e0 7.981327309977720e0 8.081720048776212e0
      8.183375572774709e0 8.286309765855677e0 8.390538711696172e0 8.496078696281067e0
      8.602946210447650e0 8.711157952462443e0 8.820730830630312e0 8.931681965936370e0
      9.044028694721268e0 9.157788571389920e0 9.272979371154518e0 9.389619092811897e0
      9.507725961555838e0 9.627318431824911e0 9.748415190185868e0 9.871035158253600e0
      9.995197495647600e0 1.012092160298567e1 1.024822712491539e1 1.037713395318355e1
      1.050766222974433e1 1.063983234990654e1 1.077366496552030e1 1.090918098820414e1
      1.104640159261227e1 1.118534821974332e1 1.132604258029050e1 1.146850665803383e1
      1.161276271327537e1 1.175883328631718e1 1.190674120098351e1 1.205650956818697e1
      1.220816178953959e1 1.236172156100956e1 1.251721287662352e1 1.267466003221593e1
      1.283408762922518e1 1.299552057853764e1 1.315898410438010e1 1.332450374826102e1
      1.349210537296151e1 1.366181516657645e1 1.383365964660633e1 1.400766566410081e1
      1.418386040785410e1 1.436227140865341e1 1.454292654358061e1 1.472585404036803e1
      1.491108248180927e1 1.509864081022510e1 1.528855833198595e1 1.548086472209101e1
      1.567559002880494e1 1.587276467835313e1 1.607241947967568e1 1.627458562924152e1
      1.647929471592285e1 1.668657872593091e1 1.689647004781403e1 1.710900147751823e1
      1.732420622351182e1 1.754211791197424e1 1.776277059205009e1 1.798619874116961e1
      1.821243727043562e1 1.844152153007863e1 1.867348731498031e1 1.890837087026642e1
      1.914620889697043e1 1.938703855776782e1 1.963089748278310e1 1.987782377546947e1
      2.012785601856247e1 2.038103328010885e1 2.063739511957074e1 2.089698159400717e1
      2.115983326433294e1 2.142599120165624e1 2.169549699369635e1 2.196839275128152e1
      2.224472111492913e1 2.252452526150821e1 2.280784891098587e1 2.309473633325884e1
      2.338523235507045e1 2.367938236701516e1 2.397723233063084e1 2.427882878558020e1
      2.458421885692300e1 2.489345026247914e1 2.520657132028491e1 2.552363095614269e1
      2.584467871126554e1 2.616976475001849e1 2.649893986775638e1 2.683225549876112e1
      2.716976372427824e1 2.751151728065453e1 2.785756956757860e1 2.820797465642422e1
      2.856278729869947e1 2.892206293460164e1 2.928585770167969e1 2.965422844360621e1
      3.002723271905899e1 3.040492881071501e1 3.078737573435705e1 3.117463324809495e1
      3.156676186170319e1 3.196382284607535e1 3.236587824279810e1 3.277299087384525e1
      3.318522435139354e1 3.360264308776266e1 3.402531230547929e1 3.445329804746869e1
      3.488666718737384e1 3.532548744000444e1 3.576982737191786e1 3.621975641213236e1
      3.667534486297592e1 3.713666391107096e1 3.760378563845716e1 3.807678303385494e1
      3.855573000406951e1 3.904070138553945e1 3.953177295602988e1 4.002902144647263e1
      4.053252455295614e1 4.104236094886505e1 4.155861029717355e1 4.208135326289269e1
      4.261067152567427e1 4.314664779257391e1 4.368936581097357e1 4.423891038166793e1
      4.479536737211425e1 4.535882372984928e1 4.592936749607541e1 4.650708781941675e1
      4.709207496984927e1 4.768442035280549e1 4.828421652345646e1 4.889155720117431e1
      4.950653728417540e1 5.012925286434898e1 5.075980124227146e1 5.139828094240957e1
      5.204479172851563e1 5.269943461921514e1 5.336231190379172e1 5.403352715816984e1
      5.471318526109838e1 5.540139241053892e1 5.609825614025851e1 5.680388533663281e1
      5.751839025565946e1 5.824188254018554e1 5.897447523735264e1 5.971628281625999e1
      6.046742118585108e1 6.122800771302450e1 6.199816124097232e1 6.277800210775040e1
      6.356765216508053e1 6.436723479739086e1 6.517687494109454e1 6.599669910411103e1
      6.682683538563400e1 6.766741349614610e1 6.851856477768739e1 6.938042222437743e1
      7.025312050319545e1 7.113679597502333e1 7.203158671595109e1 7.293763253885264e1
      7.385507501523127e1 7.478405749734022e1 7.572472514058262e1 7.667722492619124e1
      7.764170568419560e1 7.861831811667653e1 7.960721482131326e1 8.060855031522811e1
      8.162248105912894e1 8.264916548175748e1 8.368876400464373e1 8.474143906717167e1
      8.580735515196180e1 8.688667881057070e1 8.797957868951606e1 8.908622555662765e1
      9.020679232772967e1 9.134145409366017e1 9.249038814762830e1 9.365377401291763e1
      9.483179347093673e1 9.602463058962229e1 9.723247175220129e1 9.845550568631239e1
      9.969392349349624e1
      </PP_R>
    <PP_RAB>
      1.036229506311950e-6 1.049263668942071e-6 1.062461781155207e-6 1.075825905183243e-6
      1.089358129197750e-6 1.103060567636260e-6 1.116935361532658e-6 1.130984678851717e-6
      1.145210714827853e-6 1.159615692308130e-6 1.174201862099588e-6 1.188971503320930e-6
      1.203926923758648e-6 1.219070460227610e-6 1.234404478936202e-6 1.249931375856044e-6
      1.265653577096367e-6 1.281573539283105e-6 1.297693749942736e-6 1.314016727890975e-6
      1.330545023626335e-6 1.347281219728651e-6 1.364227931262615e-6 1.381387806186380e-6
      1.398763525765319e-6 1.416357804990965e-6 1.434173393005244e-6 1.452213073530028e-6
      1.470479665302100e-6 1.488976022513591e-6 1.507705035257945e-6 1.526669629981508e-6
      1.545872769940788e-6 1.565317455665474e-6 1.585006725427271e-6 1.604943655714638e-6
      1.625131361713494e-6 1.645572997793973e-6 1.666271758003299e-6 1.687230876564871e-6
      1.708453628383605e-6 1.729943329557650e-6 1.751703337896535e-6 1.773737053445832e-6
      1.796047919018428e-6 1.818639420732460e-6 1.841515088556030e-6 1.864678496858780e-6
      1.888133264970379e-6 1.911883057746070e-6 1.935931586139289e-6 1.960282607781525e-6
      1.984939927569454e-6 2.009907398259455e-6 2.035188921069625e-6 2.060788446289335e-6
      2.086709973896486e-6 2.112957554182501e-6 2.139535288385202e-6 2.166447329329632e-6
      2.193697882076942e-6 2.221291204581440e-6 2.249231608355906e-6 2.277523459145272e-6
      2.306171177608789e-6 2.335179240010749e-6 2.364552178919920e-6 2.394294583917766e-6
      2.424411102315578e-6 2.454906439880630e-6 2.485785361571461e-6 2.517052692282406e-6
      2.548713317597504e-6 2.580772184553872e-6 2.613234302414700e-6 2.646104743451947e-6
      2.679388643738901e-6 2.713091203952697e-6 2.747217690186937e-6 2.781773434774527e-6
      2.816763837120862e-6 2.852194364547498e-6 2.888070553146430e-6 2.924398008645113e-6
      2.961182407282385e-6 2.998429496695366e-6 3.036145096817557e-6 3.074335100788213e-6
      3.113005475873147e-6 3.152162264397147e-6 3.191811584688083e-6 3.231959632032917e-6
      3.272612679645730e-6 3.313777079647918e-6 3.355459264060735e-6 3.397665745810295e-6
      3.440403119745245e-6 3.483678063667208e-6 3.527497339374214e-6 3.571867793717250e-6
      3.616796359670076e-6 3.662290057412530e-6 3.708355995427441e-6 3.755001371611344e-6
      3.802233474399172e-6 3.850059683903082e-6 3.898487473065607e-6 3.947524408827334e-6
      3.997178153309236e-6 4.047456465009920e-6 4.098367200017876e-6 4.149918313239026e-6
      4.202117859639696e-6 4.254973995505205e-6 4.308494979714326e-6 4.362689175029732e-6
      4.417565049404695e-6 4.473131177306231e-6 4.529396241054877e-6 4.586369032181317e-6