<UPF version="2.0.1">
  <PP_INFO>
Generated using "atomic" code by A. Dal Corso  v.6.2.2
Author: ADC
Generation date:  4May2018
Pseudopotential type: USPP
Element: Nd
Functional: PBE
    Suggested minimum cutoff for wavefunctions:  38. Ry
    Suggested minimum cutoff for charge density: 202. Ry
    The Pseudo was generated with a Scalar-Relativistic Calculation
    Local Potential by smoothing AE potential with Bessel fncs, cutoff radius:   2.0000
    Pseudopotential contains additional information for GIPAW reconstruction.
    Valence configuration:
    nl pn  l   occ       Rcut    Rcut US       E pseu
    5S  1  0  2.00      1.400      1.700    -3.256761
    6S  2  0  1.50      1.400      1.700    -0.309730
    5P  2  1  6.00      1.400      1.900    -1.857788
    6P  3  1  0.50      1.400      1.900    -0.119409
    5D  3  2  1.00      1.400      1.800    -0.250580
    Generation configuration:
    5S  1  0  2.00      1.400      1.700    -3.256800
    6S  2  0  1.50      1.400      1.700    -0.309739
    5P  2  1  6.00      1.400      1.900    -1.857816
    6P  3  1  0.50      1.400      1.900    -0.119413
    5D  3  2  1.00      1.400      1.800    -0.250598
    5D  3  2  0.00      1.400      1.800     2.000000
    Pseudization used: troullier-martins

    <PP_INPUTFILE>
 &amp;input
   title='Nd',
   zed=60.0,
   rel=1,
   config='[Xe] 4f3.0 5d1.0 6s1.5 6p0.5',
   iswitch=3,
   dft='PBE'
 /
 &amp;inputp
   lpaw=.false.,
   use_xsd=.FALSE.,
   pseudotype=3,
   file_pseudopw='Nd.pbe-spdn-rrkjus_psl.1.0.0.UPF',
   author='ADC',
   lloc=-1,
   rcloc=2.0,
   which_augfun='PSQ',
   rmatch_augfun_nc=.true.,
   nlcc=.true.,
   new_core_ps=.true.,
   rcore=1.1,
   tm=.true.
 /
6
5S  1  0  2.00  0.00  1.40  1.70  0.0
6S  2  0  1.50  0.00  1.40  1.70  0.0
5P  2  1  6.00  0.00  1.40  1.90  0.0
6P  3  1  0.50  0.00  1.40  1.90  0.0
5D  3  2  1.00  0.00  1.40  1.80  0.0
5D  3  2  0.00  2.00  1.40  1.80  0.0
</PP_INPUTFILE>
  </PP_INFO>
  <!--
 END OF HUMAN READABLE SECTION 
-->
  <PP_HEADER generated="Generated using &quot;atomic&quot; code by A. Dal Corso  v.6.2.2" author="ADC" date=" 4May2018" comment="" element="Nd" pseudo_type="USPP" relativistic="scalar" is_ultrasoft="true" is_paw="false" is_coulomb="false" has_so="false" has_wfc="false" has_gipaw="true" paw_as_gipaw="false" core_correction="true" functional="PBE" z_valence="1.100000000000e1" total_psenergy="-1.250433793121e2" wfc_cutoff="3.799527236228e1" rho_cutoff="2.017258606608e2" l_max="2" l_max_rho="4" l_local="-1" mesh_size="1257" number_of_wfc="5" number_of_proj="6"/>
  <PP_MESH dx="1.250000000000e-2" mesh="1257" xmin="-7.000000000000e0" rmax="1.000000000000e2" zmesh="6.000000000000e1">
    <PP_R>
      1.519803275924194e-5 1.538920047781704e-5 1.558277279027637e-5 1.577877994268756e-5
      1.597725256156700e-5 1.617822165866515e-5 1.638171863581231e-5 1.658777528982518e-5
      1.679642381747517e-5 1.700769682051924e-5 1.722162731079395e-5 1.743824871537364e-5
      1.765759488179350e-5 1.787970008333828e-5 1.810459902439763e-5 1.833232684588864e-5
      1.856291913074672e-5 1.879641190948554e-5 1.903284166582679e-5 1.927224534240096e-5
      1.951466034651958e-5 1.976012455602021e-5 2.000867632518502e-5 2.026035449073357e-5
      2.051519837789135e-5 2.077324780653416e-5 2.103454309741024e-5 2.129912507844041e-5
      2.156703509109747e-5 2.183831499686600e-5 2.211300718378319e-5 2.239115457306212e-5
      2.267280062579824e-5 2.295798934976029e-5 2.324676530626665e-5 2.353917361714803e-5
      2.383525997179791e-5 2.413507063431159e-5 2.443865245071505e-5 2.474605285628479e-5
      2.505731988295954e-5 2.537250216684552e-5 2.569164895581584e-5 2.601481011720554e-5
      2.634203614560362e-5 2.667337817074273e-5 2.700888796548844e-5 2.734861795392876e-5
      2.769262121956556e-5 2.804095151360902e-5 2.839366326337623e-5 2.875081158079571e-5
      2.911245227101866e-5 2.947864184113867e-5 2.984943750902117e-5 3.022489721224359e-5
      3.060507961714846e-5 3.099004412801001e-5 3.137985089631629e-5 3.177456083016794e-5
      3.217423560379515e-5 3.257893766719445e-5 3.298873025588660e-5 3.340367740079731e-5
      3.382384393826223e-5 3.424929552015765e-5 3.468009862415883e-5 3.511632056412723e-5
      3.555802950062847e-5 3.600529445158257e-5 3.645818530304808e-5 3.691677282014195e-5
      3.738112865809672e-5 3.785132537345679e-5 3.832743643541559e-5 3.880953623729522e-5
      3.929770010817055e-5 3.979200432463956e-5 4.029252612274172e-5 4.079934371002638e-5
      4.131253627777265e-5 4.183218401336331e-5 4.235836811281430e-5 4.289117079346167e-5
      4.343067530680830e-5 4.397696595153203e-5 4.453012808665751e-5 4.509024814489377e-5
      4.565741364613948e-5 4.623171321115814e-5 4.681323657542521e-5 4.740207460314946e-5
      4.799831930147072e-5 4.860206383483613e-5 4.921340253955744e-5 4.983243093855100e-5
      5.045924575626359e-5 5.109394493378571e-5 5.173662764415515e-5 5.238739430785300e-5
      5.304634660849445e-5 5.371358750871710e-5 5.438922126626913e-5 5.507335345029971e-5
      5.576609095785452e-5 5.646754203057853e-5 5.717781627162890e-5 5.789702466280090e-5
      5.862527958186881e-5 5.936269482014549e-5 6.010938560026217e-5 6.086546859417239e-5
      6.163106194138220e-5 6.240628526740966e-5 6.319125970247680e-5 6.398610790043606e-5
      6.479095405793550e-5 6.560592393382471e-5 6.643114486880485e-5 6.726674580532598e-5
      6.811285730773444e-5 6.896961158267394e-5 6.983714249974302e-5 7.071558561241233e-5
      7.160507817920568e-5 7.250575918514613e-5 7.341776936347343e-5 7.434125121763336e-5
      7.527634904354443e-5 7.622320895214454e-5 7.718197889222076e-5 7.815280867352685e-5
      7.913584999019130e-5 8.013125644441976e-5 8.113918357049608e-5 8.215978885908420e-5
      8.319323178183694e-5 8.423967381631357e-5 8.529927847121087e-5 8.637221131191207e-5
      8.745863998635638e-5 8.855873425123459e-5 8.967266599851367e-5 9.080060928229543e-5
      9.194274034601285e-5 9.309923764996832e-5 9.427028189921847e-5 9.545605607180974e-5
      9.665674544736902e-5 9.787253763605419e-5 9.910362260786826e-5 1.003501927223427e-4
      1.016124427585940e-4 1.028905699457584e-4 1.041847739938093e-4 1.054952571247624e-4
      1.068222241042731e-4 1.081658822736315e-4 1.095264415821602e-4 1.109041146200196e-4
      1.122991166514244e-4 1.137116656482805e-4 1.151419823242422e-4 1.165902901692002e-4
      1.180568154842021e-4 1.195417874168116e-4 1.210454379969149e-4 1.225680021729739e-4
      1.241097178487390e-4 1.256708259204212e-4 1.272515703143327e-4 1.288521980250012e-4
      1.304729591537629e-4 1.321141069478416e-4 1.337758978399193e-4 1.354585914882035e-4
      1.371624508170005e-4 1.388877420577968e-4 1.406347347908589e-4 1.424037019873558e-4
      1.441949200520106e-4 1.460086688662904e-4 1.478452318321376e-4 1.497048959162519e-4
      1.515879516949304e-4 1.534946933994690e-4 1.554254189621388e-4 1.573804300627368e-4
      1.593600321757251e-4 1.613645346179615e-4 1.633942505970305e-4 1.654494972601835e-4
      1.675305957438931e-4 1.696378712240311e-4 1.717716529666792e-4 1.739322743795751e-4
      1.761200730642109e-4 1.783353908685821e-4 1.805785739406025e-4 1.828499727821915e-4
      1.851499423040385e-4 1.874788418810611e-4 1.898370354085563e-4 1.922248913590604e-4
      1.946427828399242e-4 1.970910876516103e-4 1.995701883467271e-4 2.020804722898017e-4
      2.046223317178073e-4 2.071961638014515e-4 2.098023707072333e-4 2.124413596602845e-4
      2.151135430079979e-4 2.178193382844580e-4 2.205591682756824e-4 2.233334610856805e-4
      2.261426502033489e-4 2.289871745702024e-4 2.318674786489603e-4 2.347840124929956e-4
      2.377372318166543e-4 2.407275980664647e-4 2.437555784932370e-4 2.468216462250733e-4
      2.499262803412953e-4 2.530699659472991e-4 2.562531942503572e-4 2.594764626363682e-4
      2.627402747475748e-4 2.660451405612604e-4 2.693915764694312e-4 2.727801053595071e-4
      2.762112566960209e-4 2.796855666033493e-4 2.832035779494847e-4 2.867658404308564e-4
      2.903729106582253e-4 2.940253522436527e-4 2.977237358885672e-4 3.014686394729385e-4
      3.052606481455697e-4 3.091003544155313e-4 3.129883582447402e-4 3.169252671417043e-4
      3.209116962564488e-4 3.249482684766333e-4 3.290356145248797e-4 3.331743730573238e-4
      3.373651907634065e-4 3.416087224669209e-4 3.459056312283290e-4 3.502565884483672e-4
      3.546622739729530e-4 3.591233761994128e-4 3.636405921840462e-4 3.682146277510407e-4
      3.728461976027600e-4 3.775360254314162e-4 3.822848440321489e-4 3.870933954175262e-4
      3.919624309334852e-4 3.968927113767313e-4 4.018850071136145e-4 4.069400982005006e-4
      4.120587745056566e-4 4.172418358326691e-4 4.224900920454157e-4 4.278043631946073e-4
      4.331854796459225e-4 4.386342822097551e-4 4.441516222725914e-4 4.497383619300415e-4
      4.553953741215428e-4 4.611235427667595e-4 4.669237629036971e-4 4.727969408285516e-4
      4.787439942373239e-4 4.847658523692080e-4 4.908634561517883e-4 4.970377583480619e-4
      5.032897237053083e-4 5.096203291058350e-4 5.160305637196149e-4 5.225214291588482e-4
      5.290939396344658e-4 5.357491221146011e-4 5.424880164850572e-4 5.493116757117894e-4
      5.562211660054349e-4 5.632175669879093e-4 5.703019718611007e-4 5.774754875776838e-4
      5.847392350140838e-4 5.920943491456161e-4 5.995419792238277e-4 6.070832889560705e-4
      6.147194566873335e-4 6.224516755843603e-4 6.302811538220848e-4 6.382091147724111e-4
      6.462367971953668e-4 6.543654554326636e-4 6.625963596036887e-4 6.709307958039643e-4
      6.793700663061037e-4 6.879154897632924e-4 6.965684014153318e-4 7.053301532972720e-4
      7.142021144506698e-4 7.231856711375062e-4 7.322822270567904e-4 7.414932035638921e-4
      7.508200398926302e-4 7.602641933801568e-4 7.698271396946687e-4 7.795103730659831e-4
      7.893154065190155e-4 7.992437721101913e-4 8.092970211668328e-4 8.194767245295596e-4
      8.297844727977322e-4 8.402218765779896e-4 8.507905667359069e-4 8.614921946508236e-4
      8.723284324738731e-4 8.833009733892633e-4 8.944115318788358e-4 9.056618439899584e-4
      9.170536676067876e-4 9.285887827249400e-4 9.402689917296225e-4 9.520961196772550e-4
      9.640720145806414e-4 9.761985476977262e-4 9.884776138239790e-4 1.000911131588466e-3
      1.013501043753633e-3 1.026249317518870e-3 1.039157944827891e-3 1.052228942679973e-3
      1.065464353445126e-3 1.078866245183209e-3 1.092436711967072e-3 1.106177874209761e-3
      1.120091878995829e-3 1.134180900416837e-3 1.148447139911043e-3 1.162892826607394e-3
      1.177520217673827e-3 1.192331598669954e-3 1.207329283904191e-3 1.222515616795369e-3
      1.237892970238898e-3 1.253463746977541e-3 1.269230379976839e-3 1.285195332805278e-3
      1.301361100019219e-3 1.317730207552678e-3 1.334305213112010e-3 1.351088706575554e-3
      1.368083310398313e-3 1.385291680021709e-3 1.402716504288506e-3 1.420360505862948e-3
      1.438226441656175e-3 1.456317103257007e-3 1.474635317368122e-3 1.493183946247745e-3
      1.511965888156876e-3 1.530984077812148e-3 1.550241486844392e-3 1.569741124262945e-3
      1.589486036925827e-3 1.609479310015814e-3 1.629724067522501e-3 1.650223472730438e-3
      1.670980728713396e-3 1.691999078834852e-3 1.713281807254774e-3 1.734832239442777e-3
      1.756653742697739e-3 1.778749726673936e-3 1.801123643913822e-3 1.823778990387483e-3
      1.846719306038899e-3 1.869948175339062e-3 1.893469227846063e-3 1.917286138772207e-3
      1.941402629558284e-3 1.965822468455043e-3 1.990549471111994e-3 2.015587501173612e-3
      2.040940470883032e-3 2.066612341693355e-3 2.092607124886622e-3 2.118928882200593e-3
      2.145581726463404e-3 2.172569822236195e-3 2.199897386463838e-3 2.227568689133842e-3
      2.255588053943545e-3 2.283959858975708e-3 2.312688537382588e-3 2.341778578078636e-3
      2.371234526441895e-3 2.401060985024221e-3 2.431262614270457e-3 2.461844133246614e-3
      2.492810320377252e-3 2.524166014192111e-3 2.555916114082141e-3 2.588065581065051e-3
      2.620619438560461e-3 2.653582773174838e-3 2.686960735496281e-3 2.720758540899306e-3
      2.754981470359776e-3 2.789634871280042e-3 2.824724158324503e-3 2.860254814265648e-3
      2.896232390840752e-3 2.932662509619359e-3 2.969550862881642e-3 3.006903214507848e-3
      3.044725400878913e-3 3.083023331788405e-3 3.121802991365951e-3 3.161070439012256e-3
      3.200831810345903e-3 3.241093318162061e-3 3.281861253403235e-3 3.323141986142253e-3
      3.364941966577591e-3 3.407267726041235e-3 3.450125878019212e-3 3.493523119184964e-3
      3.537466230445718e-3 3.581962078002010e-3 3.627017614420549e-3 3.672639879720566e-3
      3.718836002473831e-3 3.765613200918515e-3 3.812978784087041e-3 3.860940152948148e-3
      3.909504801563297e-3 3.958680318257635e-3 4.008474386805703e-3 4.058894787632013e-3
      4.109949399026777e-3 4.161646198376896e-3 4.213993263412441e-3 4.266998773468835e-3
      4.320671010764859e-3 4.375018361696791e-3 4.430049318148780e-3 4.485772478819732e-3
      4.542196550566878e-3 4.599330349766221e-3 4.657182803690124e-3 4.715762951902218e-3
      4.775079947669835e-3 4.835143059394254e-3 4.895961672058882e-3 4.957545288695679e-3
      5.019903531870039e-3 5.083046145184323e-3 5.146982994800332e-3 5.211724070980899e-3
      5.277279489650889e-3 5.343659493977848e-3 5.410874455972495e-3 5.478934878109403e-3
      5.547851394967994e-3 5.617634774894241e-3 5.688295921683231e-3 5.759845876282909e-3
      5.832295818519258e-3 5.905657068843148e-3 5.979941090099196e-3 6.055159489316859e-3
      6.131324019524039e-3 6.208446581583551e-3 6.286539226052618e-3 6.365614155065819e-3
      6.445683724241691e-3 6.526760444613316e-3 6.608856984583216e-3 6.691986171902780e-3
      6.776160995676656e-3 6.861394608392313e-3 6.947700327975140e-3 7.035091639869426e-3
      7.123582199145448e-3 7.213185832633124e-3 7.303916541082492e-3 7.395788501351332e-3
      7.488816068620361e-3 7.583013778636227e-3 7.678396349982767e-3 7.774978686380813e-3
      7.872775879016912e-3 7.971803208901402e-3 8.072076149256045e-3 8.173610367931772e-3
      8.276421729856832e-3 8.380526299515683e-3 8.485940343459152e-3 8.592680332846070e-3
      8.700762946016937e-3 8.810205071099963e-3 8.921023808649839e-3 9.033236474319786e-3
      9.146860601567109e-3 9.261913944392861e-3 9.378414480115932e-3 9.496380412182049e-3
      9.615830173008112e-3 9.736782426862266e-3 9.859256072780255e-3 9.983270247518430e-3
      1.010884432854389e-2 1.023599793706230e-2 1.036475094108367e-2 1.049512345852684e-2
      1.062713586036290e-2 1.076080877379820e-2 1.089616308549746e-2 1.103321994484724e-2
      1.117200076726066e-2 1.131252723752358e-2 1.145482131318287e-2 1.159890522797737e-2
      1.174480149531190e-2 1.189253291177505e-2 1.204212256070121e-2 1.219359381577736e-2
      1.234697034469530e-2 1.250227611284970e-2 1.265953538708282e-2 1.281877273947618e-2
      1.298001305119008e-2 1.314328151635128e-2 1.330860364598962e-2 1.347600527202422e-2
      1.364551255129971e-2 1.381715196967334e-2 1.399095034615346e-2 1.416693483708997e-2
      1.434513294041764e-2 1.452557249995264e-2 1.470828170974326e-2 1.489328911847526e-2
      1.508062363393267e-2 1.527031452751463e-2 1.546239143880923e-2 1.565688438022460e-2
      1.585382374167857e-2 1.605324029534704e-2 1.625516520047222e-2 1.645963000823137e-2
      1.666666666666667e-2 1.687630752567724e-2 1.708858534207382e-2 1.730353328469709e-2
      1.752118493960042e-2 1.774157431529766e-2 1.796473584807720e-2 1.819070440738253e-2
      1.841951530126080e-2 1.865120428187969e-2 1.888580755111377e-2 1.912336176620121e-2
      1.936390404547139e-2 1.960747197414485e-2 1.985410361020598e-2 2.010383749034968e-2
      2.035671263600284e-2 2.061276855942141e-2 2.087204526986441e-2 2.113458327984534e-2
      2.140042361146236e-2 2.166960780280819e-2 2.194217791446037e-2 2.221817653605339e-2
      2.249764679293340e-2 2.278063235289661e-2 2.306717743301252e-2 2.335732680653289e-2
      2.365112580988764e-2 2.394862034976875e-2 2.424985691030336e-2 2.455488256031693e-2
      2.486374496068784e-2 2.517649237179456e-2 2.549317366105632e-2 2.581383831056888e-2
      2.613853642483615e-2 2.646731873859907e-2 2.680023662476306e-2 2.713734210242518e-2
      2.747868784500214e-2 2.782432718846072e-2 2.817431413965154e-2 2.852870338474776e-2
      2.888755029778994e-2 2.925091094933831e-2 2.961884211523398e-2 2.999140128547015e-2
      3.036864667317517e-2 3.075063722370835e-2 3.113743262387038e-2 3.152909331122950e-2
      3.192568048356495e-2 3.232725610842925e-2 3.273388293283081e-2 3.314562449303820e-2
      3.356254512450795e-2 3.398470997193693e-2 3.441218499944146e-2 3.484503700086428e-2
      3.528333361021125e-2 3.572714331221933e-2 3.617653545305739e-2 3.663158025116172e-2
      3.709234880820781e-2 3.755891312022015e-2 3.803134608882174e-2 3.850972153262508e-2
      3.899411419876653e-2 3.948459977458569e-2 3.998125489945163e-2 4.048415717673814e-2
      4.099338518594918e-2 4.150901849499721e-2 4.203113767263583e-2 4.255982430104877e-2
      4.309516098859744e-2 4.363723138272836e-2 4.418612018304347e-2 4.474191315453453e-2
      4.530469714098409e-2 4.587456007853512e-2 4.645159100943086e-2 4.703588009592832e-2
      4.762751863438610e-2 4.822659906952936e-2 4.883321500889508e-2 4.944746123745781e-2
      5.006943373244054e-2 5.069922967831110e-2 5.133694748196717e-2 5.198268678811325e-2
      5.263654849482949e-2 5.329863476933791e-2 5.396904906396605e-2 5.464789613231123e-2
      5.533528204560919e-2 5.603131420930717e-2 5.673610137984696e-2 5.744975368165796e-2
      5.817238262436401e-2 5.890410112020790e-2 5.964502350169301e-2 6.039526553944901e-2
      6.115494446032078e-2 6.192417896568507e-2 6.270308924999858e-2 6.349179701957772e-2
      6.429042551161622e-2 6.509909951344090e-2 6.591794538200961e-2 6.674709106365548e-2
      6.758666611407792e-2 6.843680171858685e-2 6.929763071260016e-2 7.016928760239933e-2
      7.105190858614703e-2 7.194563157516742e-2 7.285059621549594e-2 7.376694390969894e-2
      7.469481783896774e-2 7.563436298549179e-2 7.658572615511150e-2 7.754905600025781e-2
      7.852450304317909e-2 7.951221969946004e-2 8.051236030183807e-2 8.152508112431677e-2
      8.255054040658521e-2 8.358889837874271e-2 8.464031728633469e-2 8.570496141570485e-2
      8.678299711966417e-2 8.787459284348483e-2 8.897991915121967e-2 9.009914875235278e-2
      9.123245652878676e-2 9.238001956216708e-2 9.354201716155258e-2 9.471863089143246e-2
      9.591004460009550e-2 9.711644444835800e-2 9.833801893865031e-2 9.957495894447204e-2
      1.008274577402159e-1 1.020957110313664e-1 1.033799169850812e-1 1.046802762611528e-1
      1.059969920433638e-1 1.073302700712344e-1 1.086803186721686e-1 1.100473487940072e-1
      1.114315740379878e-1 1.128332106921212e-1 1.142524777649864e-1 1.156895970199506e-1
      1.171447930098217e-1 1.186182931119333e-1 1.201103275636744e-1 1.216211294984640e-1
      1.231509349821775e-1 1.246999830500348e-1 1.262685157439475e-1 1.278567781503405e-1
      1.294650184384463e-1 1.310934878990815e-1 1.327424409839130e-1 1.344121353452146e-1
      1.361028318761274e-1 1.378147947514246e-1 1.395482914687878e-1 1.413035928906064e-1
      1.430809732862983e-1 1.448807103751667e-1 1.467030853697936e-1 1.485483830199789e-1
      1.504168916572355e-1 1.523089032398388e-1 1.542247133984481e-1 1.561646214822989e-1
      1.581289306059754e-1 1.601179476967752e-1 1.621319835426648e-1 1.641713528408430e-1
      1.662363742469121e-1 1.683273704246675e-1 1.704446680965168e-1 1.725885980945283e-1
      1.747594954121262e-1 1.769576992564335e-1 1.791835531012726e-1 1.814374047408358e-1
      1.837196063440268e-1 1.860305145094894e-1 1.883704903213265e-1 1.907398994055187e-1
      1.931391119870567e-1 1.955685029477869e-1 1.980284518849899e-1 2.005193431706923e-1
      2.030415660117246e-1 2.055955145105377e-1 2.081815877267802e-1 2.108001897396537e-1
      2.134517297110507e-1 2.161366219494855e-1 2.188552859748338e-1 2.216081465838798e-1
      2.243956339166951e-1 2.272181835238461e-1 2.300762364344516e-1 2.329702392250941e-1
      2.359006440895968e-1 2.388679089096825e-1 2.418724973265154e-1 2.449148788131490e-1
      2.479955287478809e-1 2.511149284885299e-1 2.542735654476530e-1 2.574719331687004e-1
      2.607105314031362e-1 2.639898661885239e-1 2.673104499275946e-1 2.706728014683142e-1
      2.740774461849511e-1 2.775249160601690e-1 2.810157497681508e-1 2.845504927587644e-1
      2.881296973427944e-1 2.917539227782381e-1 2.954237353576940e-1 2.991397084968443e-1
      3.029024228240511e-1 3.067124662710845e-1 3.105704341649836e-1 3.144769293210814e-1
      3.184325621371944e-1 3.224379506889970e-1 3.264937208266003e-1 3.306005062723389e-1
      3.347589487197944e-1 3.389696979340604e-1 3.432334118532673e-1 3.475507566913905e-1
      3.519224070423438e-1 3.563490459853890e-1 3.608313651918679e-1 3.653700650332746e-1
      3.699658546906944e-1 3.746194522656105e-1 3.793315848921122e-1 3.841029888505100e-1
      3.889344096823787e-1 3.938266023070542e-1 3.987803311395858e-1 4.037963702101830e-1
      4.088755032851562e-1 4.140185239893807e-1 4.192262359303066e-1 4.244994528235183e-1
      4.298389986198844e-1 4.352457076342999e-1 4.407204246760467e-1 4.462640051808026e-1
      4.518773153442984e-1 4.575612322576683e-1 4.633166440444948e-1 4.691444499995775e-1
      4.750455607294553e-1 4.810208982946839e-1 4.870713963539156e-1 4.931980003097830e-1
      4.994016674566170e-1 5.056833671300327e-1 5.120440808583822e-1 5.184848025161277e-1
      5.250065384791328e-1 5.316103077819083e-1 5.382971422768454e-1 5.450680867954362e-1
      5.519241993115386e-1 5.588665511066827e-1 5.658962269374594e-1 5.730143252050206e-1
      5.802219581267009e-1 5.875202519098091e-1 5.949103469275984e-1 6.023933978974489e-1
      6.099705740613006e-1 6.176430593683432e-1 6.254120526600166e-1 6.332787678573300e-1
      6.412444341505356e-1 6.493102961912004e-1 6.574776142866757e-1 6.657476645970323e-1
      6.741217393344573e-1 6.826011469651634e-1 6.911872124138468e-1 6.998812772707002e-1
      7.086847000010464e-1 7.175988561575992e-1 7.266251385953918e-1 7.357649576894215e-1
      7.450197415550143e-1 7.543909362709796e-1 7.638800061055586e-1 7.734884337452162e-1
      7.832177205263225e-1 7.930693866697283e-1 8.030449715183135e-1 8.131460337775078e-1
      8.233741517588363e-1 8.337309236265469e-1 8.442179676473110e-1 8.548369224430951e-1
      8.655894472471916e-1 8.764772221634743e-1 8.875019484289282e-1 8.986653486794594e-1
      9.099691672190707e-1 9.214151702924081e-1 9.330051463607360e-1 9.447409063813978e-1
      9.566242840907705e-1 9.686571362907998e-1 9.808413431391243e-1 9.931788084428497e-1
      1.005671459956034e0 1.018321249680890e0 1.031130154172798e0 1.044100174849149e0
      1.057233338302056e0 1.070531696615032e0 1.083997327683617e0 1.097632335540062e0
      1.111438850682087e0 1.125419030405769e0 1.139575059142637e0 1.153909148800977e0
      1.168423539111464e0 1.183120497977115e0 1.198002321827651e0 1.213071335978329e0
      1.228329894993264e0 1.243780383053348e0 1.259425214328778e0 1.275266833356265e0
      1.291307715421016e0 1.307550366943486e0 1.323997325871022e0 1.340651162074422e0
      1.357514477749469e0 1.374589907823552e0 1.391880120367354e0 1.409387817011767e0
      1.427115733370011e0 1.445066639465082e0 1.463243340162582e0 1.481648675608972e0
      1.500285521675364e0 1.519156790406874e0 1.538265430477632e0 1.557614427651529e0
      1.577206805248736e0 1.597045624618115e0 1.617133985615558e0 1.637475027088334e0
      1.658071927365566e0 1.678927904754819e0 1.700046218044995e0 1.721430167015514e0
      1.743083092951904e0 1.765008379167900e0 1.787209451534076e0 1.809689779013160e0
      1.832452874202060e0 1.855502293880706e0 1.878841639567822e0 1.902474558083651e0
      1.926404742119794e0 1.950635930816198e0 1.975171910345389e0 2.000016514504093e0
      2.025173625312250e0 2.050647173619609e0 2.076441139719924e0 2.102559553972869e0
      2.129006497433817e0 2.155786102491483e0 2.182902553513643e0 2.210360087500944e0
      2.238162994748925e0 2.266315619518418e0 2.294822360714312e0 2.323687672572919e0
      2.352916065357950e0 2.382512106065233e0 2.412480419136352e0 2.442825687181186e0
      2.473552651709610e0 2.504666113872350e0 2.536170935211160e0 2.568072038418483e0
      2.600374408106585e0 2.633083091586458e0 2.666203199656445e0 2.699739907400806e0
      2.733698454998367e0 2.768084148541268e0 2.802902360864091e0 2.838158532383352e0
      2.873858171947573e0 2.910006857698074e0 2.946610237940541e0 2.983674032027611e0
      3.021204031252523e0 3.059206099754000e0 3.097686175432572e0 3.136650270878341e0
      3.176104474310500e0 3.216054950528610e0 3.256507941875849e0 3.297469769214429e0
      3.338946832913197e0 3.380945613847748e0 3.423472674413056e0 3.466534659548844e0
      3.510138297777913e0 3.554290402257434e0 3.598997871843568e0 3.644267692169403e0
      3.690106936736453e0 3.736522768019955e0 3.783522438587968e0 3.831113292234647e0
      3.879302765127705e0 3.928098386970310e0 3.977507782177664e0 4.027538671068280e0
      4.078198871070340e0 4.129496297943173e0 4.181438967014077e0 4.234034994430788e0
      4.287292598429583e0 4.341220100619447e0 4.395825927282321e0 4.451118610689702e0
      4.507106790435884e0 4.563799214787843e0 4.621204742052233e0 4.679332341959492e0
      4.738191097065349e0 4.797790204170055e0 4.858138975755335e0 4.919246841439537e0
      4.981123349451009e0 5.043778168119998e0 5.107221087389409e0 5.171462020344440e0
      5.236511004761570e0 5.302378204676968e0 5.369073911974609e0 5.436608547994472e0
      5.504992665160815e0 5.574236948631084e0 5.644352217965459e0 5.715349428817406e0
      5.787239674645584e0 5.860034188447147e0 5.933744344512986e0 6.008381660204962e0
      6.083957797755483e0 6.160484566089821e0 6.237973922671203e0 6.316437975369259e0
      6.395888984351871e0 6.476339364000813e0 6.557801684851607e0 6.640288675557598e0
      6.723813224878919e0 6.808388383696342e0 6.894027367050480e0 6.980743556206739e0
      7.068550500746076e0 7.157461920682232e0 7.247491708605477e0 7.338653931853315e0
      7.430962834708626e0 7.524432840625257e0 7.619078554481815e0 7.714914764863660e0
      7.811956446373617e0 7.910218761971882e0 8.009717065345155e0 8.110466903305786e0
      8.212484018220946e0 8.315784350472367e0 8.420384040947159e0 8.526299433559737e0
      8.633547077805700e0 8.742143731347674e0 8.852106362633686e0 8.963452153548623e0
      9.076198502098825e0 9.190363025130646e0 9.305963561083100e0 9.423018172775084e0
      9.541545150227865e0 9.661563013522773e0 9.783090515695147e0 9.906146645664471e0
      1.003075063120137e1 1.015692194193214e1 1.028468029238073e1 1.041404564504935e1
      1.054503821353757e1 1.067767846570068e1 1.081198712684798e1 1.094798518298099e1
      1.108569388407270e1 1.122513474738782e1 1.136632956084493e1 1.150930038642091e1
      1.165406956359810e1 1.180065971285499e1 1.194909373920067e1 1.209939483575369e1
      1.225158648736623e1 1.240569247429345e1 1.256173687590936e1 1.271974407446919e1
      1.287973875891917e1 1.304174592875428e1 1.320579089792437e1 1.337189929878965e1
      1.354009708612574e1 1.371041054117904e1 1.388286627577348e1 1.405749123646840e1
      1.423431270876919e1 1.441335832139070e1 1.459465605057410e1 1.477823422445849e1
      1.496412152750697e1 1.515234700498887e1 1.534294006751802e1 1.553593049564814e1
      1.573134844452633e1 1.592922444860463e1 1.612958942641128e1 1.633247468538174e1
      1.653791192675044e1 1.674593325050437e1 1.695657116039852e1 1.716985856903490e1
      1.738582880300507e1 1.760451560809742e1 1.782595315457023e1 1.805017604249060e1
      1.827721930714098e1 1.850711842449342e1 1.873990931675268e1 1.897562835796935e1
      1.921431237972314e1 1.945599867687809e1 1.970072501340987e1 1.994852962830639e1
      2.019945124154297e1 2.045352906013211e1 2.071080278424993e1 2.097131261343927e1
      2.123509925289090e1 2.150220391980397e1 2.177266834982605e1 2.204653480357462e1
      2.232384607324032e1 2.260464548927314e1 2.288897692715320e1 2.317688481424609e1
      2.346841413674493e1 2.376361044669954e1 2.406251986913384e1 2.436518910925332e1
      2.467166545974244e1 2.498199680815453e1 2.529623164439422e1 2.561441906829387e1
      2.593660879728594e1 2.626285117417097e1 2.659319717498415e1 2.692769841696026e1
      2.726640716659879e1 2.760937634783108e1 2.795665955028940e1 2.830831103768070e1
      2.866438575626541e1 2.902493934344262e1 2.939002813644400e1 2.975970918113612e1
      3.013404024093439e1 3.051307980582854e1 3.089688710152164e1 3.128552209868462e1
      3.167904552232635e1 3.207751886128246e1 3.248100437782291e1 3.288956511738047e1
      3.330326491840201e1 3.372216842232302e1 3.414634108366830e1 3.457584918027922e1
      3.501075982366963e1 3.545114096951248e1 3.589706142825767e1 3.634859087588416e1
      3.680579986478686e1 3.726875983480034e1 3.773754312436195e1 3.821222298181431e1
      3.869287357685094e1 3.917957001210530e1 3.967238833488544e1 4.017140554905707e1
      4.067669962707501e1 4.118834952216709e1 4.170643518067043e1 4.223103755452306e1
      4.276223861391339e1 4.330012136008751e1 4.384476983831893e1 4.439626915104053e1
      4.495470547114183e1 4.552016605543414e1 4.609273925828401e1 4.667251454541939e1
      4.725958250790856e1 4.785403487631486e1 4.845596453503047e1 4.906546553678901e1
      4.968263311736214e1 5.030756371044006e1 5.094035496269917e1 5.158110574906025e1
      5.222991618813709e1 5.288688765788094e1 5.355212281142062e1 5.422572559310214e1
      5.490780125473076e1 5.559845637201615e1 5.629779886122559e1 5.700593799604595e1
      5.772298442465758e1 5.844905018702399e1 5.918424873239754e1 5.992869493704681e1
      6.068250512220597e1 6.144579707224990e1 6.221869005309892e1 6.300130483085352e1
      6.379376369066510e1 6.459619045584289e1 6.540871050720125e1 6.623145080265153e1
      6.706453989703855e1 6.790810796222835e1 6.876228680744747e1 6.962720989987810e1