<UPF version="2.0.1">
  <PP_INFO>
Generated using "atomic" code by A. Dal Corso  v.6.2.2
Author: ADC
Generation date:  7May2018
Pseudopotential type: USPP
Element: Pa
Functional: PBE
    Suggested minimum cutoff for wavefunctions:  91. Ry
    Suggested minimum cutoff for charge density: 446. Ry
    The Pseudo was generated with a Scalar-Relativistic Calculation
    Local Potential by smoothing AE potential with Bessel fncs, cutoff radius:   2.1000
    Pseudopotential contains additional information for GIPAW reconstruction.
    Valence configuration:
    nl pn  l   occ       Rcut    Rcut US       E pseu
    6S  1  0  2.00      1.300      1.500    -3.452897
    7S  2  0  2.00      1.300      1.500    -0.318999
    6P  2  1  6.00      1.400      2.200    -1.718133
    6D  3  2  1.50      1.900      2.200    -0.200964
    5F  4  3  1.50      1.100      1.300    -0.271015
    Generation configuration:
    6S  1  0  2.00      1.300      1.500    -3.452939
    7S  2  0  2.00      1.300      1.500    -0.319005
    6P  2  1  6.00      1.400      2.200    -1.718213
    7P  3  1  0.00      1.400      2.200     5.000000
    6D  3  2  1.50      1.900      2.200    -0.201009
    6D  3  2  0.00      1.900      2.200     4.800000
    5F  4  3  1.50      1.100      1.300    -0.271184
    5F  4  3  0.00      1.100      1.300    -0.500000
    Pseudization used: troullier-martins

    <PP_INPUTFILE>
 &amp;input
   title='Pa',
   zed=91.0,
   rel=1,
   config='[Rn] 6d1.5 7s2.0 7p0. 5f1.5',
   iswitch=3,
   dft='PBE'
 /
 &amp;inputp
   lpaw=.false.,
   use_xsd=.FALSE.,
   pseudotype=3,
   file_pseudopw='Pa.pbe-spfn-rrkjus_psl.1.0.0.UPF',
   author='ADC',
   lloc=-1,
   rcloc=2.1,
   which_augfun='PSQ',
   rmatch_augfun_nc=.true.,
   nlcc=.true.,
   new_core_ps=.true.,
   rcore=1.5,
   tm=.true.
 /
8
6S  1  0  2.00  0.00  1.30  1.50  0.0
7S  2  0  2.00  0.00  1.30  1.50  0.0
6P  2  1  6.00  0.00  1.40  2.20  0.0
7P  3  1  0.00  5.00  1.40  2.20  0.0
6D  3  2  1.50  0.00  1.90  2.20  0.0
6D  3  2  0.00  4.80  1.90  2.20  0.0
5F  4  3  1.50  0.00  1.10  1.30  0.0
5F  4  3  0.00 -0.50  1.10  1.30  0.0
</PP_INPUTFILE>
  </PP_INFO>
  <!--
 END OF HUMAN READABLE SECTION 
-->
  <PP_HEADER generated="Generated using &quot;atomic&quot; code by A. Dal Corso  v.6.2.2" author="ADC" date=" 7May2018" comment="" element="Pa" pseudo_type="USPP" relativistic="scalar" is_ultrasoft="true" is_paw="false" is_coulomb="false" has_so="false" has_wfc="false" has_gipaw="true" paw_as_gipaw="false" core_correction="true" functional="PBE" z_valence="1.300000000000e1" total_psenergy="-1.147192716607e2" wfc_cutoff="9.093366108964e1" rho_cutoff="4.455503548866e2" l_max="3" l_max_rho="6" l_local="-1" mesh_size="1291" number_of_wfc="5" number_of_proj="8"/>
  <PP_MESH dx="1.250000000000e-2" mesh="1291" xmin="-7.000000000000e0" rmax="1.000000000000e2" zmesh="9.100000000000e1">
    <PP_R>
      1.002068094015952e-5 1.014672558976948e-5 1.027435568589651e-5 1.040359117100279e-5
      1.053445223839582e-5 1.066695933538361e-5 1.080113316646965e-5 1.093699469658803e-5
      1.107456515437924e-5 1.121386603550719e-5 1.135491910601799e-5 1.149774640574086e-5
      1.164237025173198e-5 1.178881324176151e-5 1.193709825784459e-5 1.208724846981668e-5
      1.223928733895388e-5 1.239323862163881e-5 1.254912637307261e-5 1.270697495103360e-5
      1.286680901968324e-5 1.302865355341992e-5 1.319253384078133e-5 1.335847548839577e-5
      1.352650442498331e-5 1.369664690540714e-5 1.386892951477599e-5 1.404337917259807e-5
      1.422002313698734e-5 1.439888900892264e-5 1.458000473656035e-5 1.476339861960140e-5
      1.494909931371312e-5 1.513713583500678e-5 1.532753756457142e-5 1.552033425306463e-5
      1.571555602536126e-5 1.591323338526039e-5 1.611339722025168e-5 1.631607880634162e-5
      1.652130981294035e-5 1.672912230781024e-5 1.693954876207638e-5 1.715262205530035e-5
      1.736837548061776e-5 1.758684274994027e-5 1.780805799922315e-5 1.803205579379918e-5
      1.825887113377949e-5 1.848853945952243e-5 1.872109665717114e-5 1.895657906426091e-5
      1.919502347539692e-5 1.943646714800352e-5 1.968094780814583e-5 1.992850365642434e-5
      2.017917337394403e-5 2.043299612835825e-5 2.069001157998876e-5 2.095025988802282e-5
      2.121378171678801e-5 2.148061824210624e-5 2.175081115772743e-5 2.202440268184438e-5
      2.230143556368938e-5 2.258195309021383e-5 2.286599909285198e-5 2.315361795436961e-5
      2.344485461579899e-5 2.373975458346104e-5 2.403836393607566e-5 2.434072933196172e-5
      2.464689801632751e-5 2.495691782865282e-5 2.527083721016413e-5 2.558870521140344e-5
      2.591057149989267e-5 2.623648636789421e-5 2.656650074026926e-5 2.690066618243497e-5
      2.723903490842152e-5 2.758165978903075e-5 2.792859436009734e-5 2.827989283085385e-5
      2.863561009240109e-5 2.899580172628485e-5 2.936052401318078e-5 2.972983394168820e-5
      3.010378921723482e-5 3.048244827109328e-5 3.086587026951113e-5 3.125411512295568e-5
      3.164724349547519e-5 3.204531681417766e-5 3.244839727882908e-5 3.285654787157210e-5
      3.326983236676720e-5 3.368831534095762e-5 3.411206218295945e-5 3.454113910407890e-5
      3.497561314845789e-5 3.541555220354974e-5 3.586102501072690e-5 3.631210117602178e-5
      3.676885118100299e-5 3.723134639378803e-5 3.769965908019488e-5 3.817386241503355e-5
      3.865403049353988e-5 3.914023834295308e-5 3.963256193423880e-5 4.013107819395982e-5
      4.063586501629596e-5 4.114700127521517e-5 4.166456683679788e-5 4.218864257171608e-5
      4.271931036786957e-5 4.325665314318114e-5 4.380075485855264e-5 4.435170053098416e-5
      4.490957624685787e-5 4.547446917538942e-5 4.604646758224813e-5 4.662566084334880e-5
      4.721213945881692e-5 4.780599506712932e-5 4.840732045943302e-5 4.901620959404398e-5
      4.963275761112820e-5 5.025706084756782e-5 5.088921685201369e-5 5.152932440012759e-5
      5.217748351001623e-5 5.283379545785918e-5 5.349836279373367e-5 5.417128935763794e-5
      5.485268029571667e-5 5.554264207669025e-5 5.624128250849068e-5 5.694871075510687e-5
      5.766503735364158e-5 5.839037423158324e-5 5.912483472429474e-5 5.986853359272225e-5
      6.062158704132717e-5 6.138411273624285e-5 6.215622982366055e-5 6.293805894844599e-5
      6.372972227299057e-5 6.453134349629948e-5 6.534304787331973e-5 6.616496223451163e-5
      6.699721500566636e-5 6.783993622797253e-5 6.869325757833583e-5 6.955731238995327e-5
      7.043223567314707e-5 7.131816413646030e-5 7.221523620801772e-5 7.312359205715575e-5
      7.404337361632383e-5 7.497472460326184e-5 7.591779054345639e-5 7.687271879287925e-5
      7.783965856101237e-5 7.881876093416152e-5 7.981017889906474e-5 8.081406736679599e-5
      8.183058319697075e-5 8.285988522225578e-5 8.390213427318638e-5 8.495749320329747e-5
      8.602612691456892e-5 8.710820238319226e-5 8.820388868566109e-5 8.931335702518915e-5
      9.043678075846186e-5 9.157433542272319e-5 9.272619876320363e-5 9.389255076089393e-5
      9.507357366066632e-5 9.626945199975195e-5 9.748037263657427e-5 9.870652477994636e-5
      9.994810001863542e-5 1.012052923512982e-4 1.024782982167948e-4 1.037673165248814e-4
      1.050725486872913e-4 1.063941986492054e-4 1.077324729211190e-4 1.090875806111100e-4
      1.104597334575119e-4 1.118491458619985e-4 1.132560349230852e-4 1.146806204700495e-4
      1.161231250972819e-4 1.175837741990652e-4 1.190627960047929e-4 1.205604216146317e-4
      1.220768850356298e-4 1.236124232182820e-4 1.251672760935536e-4 1.267416866103695e-4
      1.283359007735764e-4 1.299501676823804e-4 1.315847395692705e-4 1.332398718394297e-4
      1.349158231106422e-4 1.366128552537043e-4 1.383312334333406e-4 1.400712261496381e-4
      1.418331052799986e-4 1.436171461216207e-4 1.454236274345158e-4 1.472528314850640e-4
      1.491050440901201e-4 1.509805546616719e-4 1.528796562520617e-4 1.548026455997773e-4
      1.567498231758160e-4 1.587214932306360e-4 1.607179638416947e-4 1.627395469615868e-4
      1.647865584667881e-4 1.668593182070104e-4 1.689581500551806e-4 1.710833819580449e-4
      1.732353459874120e-4 1.754143783920398e-4 1.776208196501744e-4 1.798550145227520e-4
      1.821173121072665e-4 1.844080658923182e-4 1.867276338128471e-4 1.890763783060592e-4
      1.914546663680606e-4 1.938628696111996e-4 1.963013643221323e-4 1.987705315206188e-4
      2.012707570190569e-4 2.038024314827680e-4 2.063659504910374e-4 2.089617145989259e-4
      2.115901293998563e-4 2.142516055889890e-4 2.169465590273932e-4 2.196754108070267e-4
      2.224385873165317e-4 2.252365203078599e-4 2.280696469637334e-4 2.309384099659564e-4
      2.338432575645844e-4 2.367846436479645e-4 2.397630278136568e-4 2.427788754402466e-4
      2.458326577600615e-4 2.489248519328019e-4 2.520559411200982e-4 2.552264145610064e-4
      2.584367676484518e-4 2.616875020066360e-4 2.649791255694162e-4 2.683121526596707e-4
      2.716871040696637e-4 2.751045071424192e-4 2.785648958541203e-4 2.820688108975433e-4
      2.856167997665422e-4 2.892094168415968e-4 2.928472234764339e-4 2.965307880857416e-4
      3.002606862339843e-4 3.040375007253360e-4 3.078618216947453e-4 3.117342467001439e-4
      3.156553808158180e-4 3.196258367269503e-4 3.236462348253549e-4 3.277172033064144e-4
      3.318393782672363e-4 3.360134038060450e-4 3.402399321228231e-4 3.445196236212186e-4
      3.488531470117357e-4 3.532411794162205e-4 3.576844064736640e-4 3.621835224473337e-4
      3.667392303332537e-4 3.713522419700501e-4 3.760232781501762e-4 3.807530687325388e-4
      3.855423527565388e-4 3.903918785575491e-4 3.953024038838424e-4 4.002746960149916e-4
      4.053095318817583e-4 4.104076981874903e-4 4.155699915310450e-4 4.207972185312602e-4
      4.260901959529891e-4 4.314497508347232e-4 4.368767206178167e-4 4.423719532773390e-4
      4.479363074545740e-4 4.535706525911819e-4 4.592758690650539e-4 4.650528483278716e-4
      4.709024930443977e-4 4.768257172335206e-4 4.828234464110706e-4 4.888966177344344e-4
      4.950461801489871e-4 5.012730945363670e-4 5.075783338646167e-4 5.139628833402087e-4
      5.204277405619884e-4 5.269739156770491e-4 5.336024315385711e-4 5.403143238656437e-4
      5.471106414050984e-4 5.539924460953777e-4 5.609608132324660e-4 5.680168316379055e-4
      5.751616038289273e-4 5.823962461907231e-4 5.897218891508807e-4 5.971396773560165e-4
      6.046507698506293e-4 6.122563402582022e-4 6.199575769645862e-4 6.277556833036845e-4
      6.356518777454778e-4 6.436473940864127e-4 6.517434816421838e-4 6.599414054429444e-4
      6.682424464309667e-4 6.766479016607938e-4 6.851590845019061e-4 6.937773248439383e-4
      7.025039693044787e-4 7.113403814394786e-4 7.202879419563114e-4 7.293480489295126e-4
      7.385221180192280e-4 7.478115826924197e-4 7.572178944468413e-4 7.667425230378423e-4
      7.763869567080178e-4 7.861527024197496e-4 7.960412860906754e-4 8.060542528321113e-4
      8.161931671904822e-4 8.264596133917850e-4 8.368551955891245e-4 8.473815381133704e-4
      8.580402857269577e-4 8.688331038808867e-4 8.797616789749515e-4 8.908277186212443e-4
      9.020329519109758e-4 9.133791296846436e-4 9.248680248056086e-4 9.365014324371083e-4
      9.482811703227528e-4 9.602090790705537e-4 9.722870224405201e-4 9.845168876358759e-4
      9.969005855979402e-4 1.009440051304713e-3 1.022137244073225e-3 1.034994147865678e-3
      1.048012771599447e-3 1.061195149460976e-3 1.074543341223627e-3 1.088059432569520e-3
      1.101745535415426e-3 1.115603788242759e-3 1.129636356431719e-3 1.143845432599633e-3
      1.158233236943564e-3 1.172802017587211e-3 1.187554050932190e-3 1.202491642013725e-3
      1.217617124860813e-3 1.232932862860920e-3 1.248441249129272e-3 1.264144706882774e-3
      1.280045689818649e-3 1.296146682497831e-3 1.312450200733183e-3 1.328958791982601e-3
      1.345675035747054e-3 1.362601543973640e-3 1.379740961463707e-3 1.397095966286105e-3
      1.414669270195651e-3 1.432463619056832e-3 1.450481793272860e-3 1.468726608220116e-3
      1.487200914688052e-3 1.505907599324643e-3 1.524849585087421e-3 1.544029831700200e-3
      1.563451336115535e-3 1.583117132983003e-3 1.603030295123378e-3 1.623193934008757e-3
      1.643611200248738e-3 1.664285284082711e-3 1.685219415878335e-3 1.706416866636297e-3
      1.727880948501403e-3 1.749615015280114e-3 1.771622462964581e-3 1.793906730263279e-3
      1.816471299138314e-3 1.839319695349479e-3 1.862455489005166e-3 1.885882295120207e-3
      1.909603774180716e-3 1.933623632716061e-3 1.957945623878005e-3 1.982573548027153e-3
      2.007511253326756e-3 2.032762636344003e-3 2.058331642658869e-3 2.084222267480608e-3
      2.110438556272024e-3 2.136984605381579e-3 2.163864562683451e-3 2.191082628225661e-3
      2.218643054886324e-3 2.246550149038177e-3 2.274808271221459e-3 2.303421836825251e-3
      2.332395316777397e-3 2.361733238243084e-3 2.391440185332230e-3 2.421520799815759e-3
      2.451979781850877e-3 2.482821890715504e-3 2.514051945551896e-3 2.545674826119658e-3
      2.577695473558218e-3 2.610118891158881e-3 2.642950145146617e-3 2.676194365471657e-3
      2.709856746611062e-3 2.743942548380371e-3 2.778457096755456e-3 2.813405784704726e-3
      2.848794073031775e-3 2.884627491228652e-3 2.920911638339855e-3 2.957652183837186e-3
      2.994854868505634e-3 3.032525505340365e-3 3.070669980455027e-3 3.109294254001462e-3
      3.148404361100990e-3 3.188006412787421e-3 3.228106596961900e-3 3.268711179359788e-3
      3.309826504529696e-3 3.351458996824828e-3 3.393615161406813e-3 3.436301585262131e-3
      3.479524938231355e-3 3.523291974051328e-3 3.567609531410437e-3 3.612484535017189e-3
      3.657923996682194e-3 3.703935016413785e-3 3.750524783527405e-3 3.797700577768951e-3
      3.845469770452258e-3 3.893839825610867e-3 3.942818301164305e-3 3.992412850099027e-3
      4.042631221664202e-3 4.093481262582561e-3 4.144970918276451e-3 4.197108234109331e-3
      4.249901356642872e-3 4.303358534909879e-3 4.357488121703219e-3 4.412298574880954e-3
      4.467798458687905e-3 4.523996445093832e-3 4.580901315148444e-3 4.638521960353467e-3
      4.696867384051943e-3 4.755946702835027e-3 4.815769147966478e-3 4.876344066825054e-3
      4.937680924365074e-3 4.999789304595314e-3 5.062678912076550e-3 5.126359573437897e-3
      5.190841238912249e-3 5.256133983891035e-3 5.322248010498491e-3 5.389193649185785e-3
      5.456981360345163e-3 5.525621735944406e-3 5.595125501181859e-3 5.665503516162244e-3
      5.736766777593585e-3 5.808926420505469e-3 5.881993719988904e-3 5.955980092958102e-3
      6.030897099934358e-3 6.106756446852436e-3 6.183569986889626e-3 6.261349722317835e-3
      6.340107806378975e-3 6.419856545183912e-3 6.500608399635333e-3 6.582375987374789e-3
      6.665172084754213e-3 6.749009628832285e-3 6.833901719395827e-3 6.919861621006707e-3
      7.006902765074436e-3 7.095038751954857e-3 7.184283353075247e-3 7.274650513086090e-3
      7.366154352039995e-3 7.458809167597966e-3 7.552629437263430e-3 7.647629820644419e-3
      7.743825161744107e-3 7.841230491280252e-3 7.939861029033767e-3 8.039732186226834e-3
      8.140859567930967e-3 8.243258975505297e-3 8.346946409065593e-3 8.451938069984298e-3
      8.558250363422031e-3 8.665899900890953e-3 8.774903502850300e-3 8.885278201334646e-3
      8.997041242615191e-3 9.110210089894510e-3 9.224802426035248e-3 9.340836156323057e-3
      9.458329411264376e-3 9.577300549419325e-3 9.697768160270279e-3 9.819751067126548e-3
      9.943268330065493e-3 1.006833924891075e-2 1.019498336624784e-2 1.032322047047776e-2
      1.045307059890895e-2 1.058455404088816e-2 1.071769134097069e-2 1.085250330213057e-2
      1.098901098901099e-2 1.112723573121576e-2 1.126719912664208e-2 1.140892304485523e-2
      1.155242963050577e-2 1.169774130678967e-2 1.184488077895200e-2 1.199387103783464e-2
      1.214473536346866e-2 1.229749732871188e-2 1.245218080293216e-2 1.260880995573706e-2
      1.276740926075037e-2 1.292800349943617e-2 1.309061776497098e-2 1.325527746616463e-2
      1.342200833143044e-2 1.359083641280533e-2 1.376178809002049e-2 1.393489007462330e-2
      1.411016941415100e-2 1.428765349635705e-2 1.446737005349036e-2 1.464934716662861e-2
      1.483361327006598e-2 1.502019715575600e-2 1.520912797781046e-2 1.540043525705466e-2
      1.559414888564020e-2 1.579029913171566e-2 1.598891664415606e-2 1.619003245735182e-2
      1.639367799605792e-2 1.659988508030410e-2 1.680868593036681e-2 1.702011317180366e-2
      1.723419984055131e-2 1.745097938808730e-2 1.767048568665697e-2 1.789275303456606e-2
      1.811781616153987e-2 1.834571023414992e-2 1.857647086130870e-2 1.881013409983369e-2
      1.904673646008128e-2 1.928631491165163e-2 1.952890688916526e-2 1.977455029811219e-2
      2.002328352077484e-2 2.027514542222529e-2 2.053017535639805e-2 2.078841317223923e-2
      2.104989921993293e-2 2.131467435720610e-2 2.158277995571262e-2 2.185425790749771e-2
      2.212915063154370e-2 2.240750108039798e-2 2.268935274688448e-2 2.297474967089952e-2
      2.326373644629313e-2 2.355635822783692e-2 2.385266073827960e-2 2.415269027549124e-2
      2.445649371969746e-2 2.476411854080449e-2 2.507561280581653e-2 2.539102518634620e-2
      2.571040496621969e-2 2.603380204917737e-2 2.636126696667140e-2 2.669285088576141e-2
      2.702860561710934e-2 2.736858362307508e-2 2.771283802591373e-2 2.806142261607612e-2
      2.841439186061370e-2 2.877180091168903e-2 2.913370561519350e-2 2.950016251947332e-2
      2.987122888416533e-2 3.024696268914404e-2 3.062742264358080e-2 3.101266819511758e-2
      3.140275953915567e-2 3.179775762826111e-2 3.219772418168906e-2 3.260272169502713e-2
      3.301281344996079e-2 3.342806352416117e-2 3.384853680129704e-2 3.427429898117357e-2
      3.470541658999746e-2 3.514195699077225e-2 3.558398839382377e-2 3.603157986745795e-2
      3.648480134875331e-2 3.694372365448825e-2 3.740841849220678e-2 3.787895847142283e-2
      3.835541711496529e-2 3.883786887046674e-2 3.932638912199539e-2 3.982105420183451e-2
      4.032194140240930e-2 4.082912898836378e-2 4.134269620879027e-2 4.186272330961168e-2
      4.238929154612058e-2 4.292248319567532e-2 4.346238157055579e-2 4.400907103098164e-2
      4.456263699829313e-2 4.512316596829902e-2 4.569074552479132e-2 4.626546435323032e-2
      4.684741225460244e-2 4.743668015945105e-2 4.803336014208524e-2 4.863754543496634e-2
      4.924933044327543e-2 4.986881075966492e-2 5.049608317919439e-2 5.113124571445570e-2
      5.177439761088730e-2 5.242563936228136e-2 5.308507272648665e-2 5.375280074130776e-2
      5.442892774060564e-2 5.511355937059959e-2 5.580680260637452e-2 5.650876576859662e-2
      5.721955854043791e-2 5.793929198471527e-2 5.866807856124373e-2 5.940603214440843e-2
      6.015326804095831e-2 6.090990300802225e-2 6.167605527135334e-2 6.245184454380163e-2
      6.323739204401901e-2 6.403282051540088e-2 6.483825424526395e-2 6.565381908426727e-2
      6.647964246607639e-2 6.731585342727458e-2 6.816258262752606e-2 6.901996236999084e-2
      6.988812662199813e-2 7.076721103597873e-2 7.165735297066059e-2 7.255869151253225e-2
      7.347136749757441e-2 7.439552353326674e-2 7.533130402087014e-2 7.627885517798941e-2
      7.723832506142090e-2 7.820986359028569e-2 7.919362256945567e-2 8.018975571327292e-2
      8.119841866956758e-2 8.221976904397897e-2 8.325396642458076e-2 8.430117240681788e-2
      8.536155061875579e-2 8.643526674664715e-2 8.752248856082176e-2 8.862338594189973e-2
      8.973813090733678e-2 9.086689763830192e-2 9.200986250689303e-2 9.316720410369649e-2
      9.433910326569118e-2 9.552574310450550e-2 9.672730903502874e-2 9.794398880438171e-2
      9.917597252125416e-2 1.004234526856080e-1 1.016866242187570e-1 1.029656844938235e-1
      1.042608333665772e-1 1.055722732066650e-1 1.069002089292296e-1 1.082448480269295e-1
      1.096064006023596e-1 1.109850794008797e-1 1.123810998438572e-1 1.137946800623263e-1
      1.152260409310722e-1 1.166754061031430e-1 1.181430020447951e-1 1.196290580708808e-1
      1.211338063806770e-1 1.226574820941688e-1 1.242003232887867e-1 1.257625710366057e-1
      1.273444694420154e-1 1.289462656798595e-1 1.305682100340593e-1 1.322105559367202e-1
      1.338735600077305e-1 1.355574820948600e-1 1.372625853143606e-1 1.389891360920794e-1
      1.407374042050884e-1 1.425076628238366e-1 1.443001885548355e-1 1.461152614838768e-1
      1.479531652197990e-1 1.498141869387996e-1 1.516986174293087e-1 1.536067511374247e-1
      1.555388862129210e-1 1.574953245558346e-1 1.594763718636365e-1 1.614823376789994e-1
      1.635135354381632e-1 1.655702825199098e-1 1.676529002951558e-1 1.697617141771651e-1
      1.718970536723975e-1 1.740592524319938e-1 1.762486483039085e-1 1.784655833857017e-1
      1.807104040779897e-1 1.829834611385730e-1 1.852851097372423e-1 1.876157095112732e-1
      1.899756246216227e-1 1.923652238098274e-1 1.947848804556224e-1 1.972349726352819e-1
      1.997158831806931e-1 2.022279997391766e-1 2.047717148340551e-1 2.073474259259877e-1
      2.099555354750733e-1 2.125964510037343e-1 2.152705851603958e-1 2.179783557839597e-1
      2.207201859690953e-1 2.234965041323476e-1 2.263077440790773e-1 2.291543450712465e-1
      2.320367518960508e-1 2.349554149354213e-1 2.379107902363964e-1 2.409033395823789e-1
      2.439335305652930e-1 2.470018366586443e-1 2.501087372915025e-1 2.532547179234132e-1
      2.564402701202497e-1 2.596658916310247e-1 2.629320864656610e-1 2.662393649737470e-1
      2.695882439242788e-1 2.729792465864049e-1 2.764129028111912e-1 2.798897491144076e-1
      2.834103287603633e-1 2.869751918467911e-1 2.905848953908000e-1 2.942400034159138e-1
      2.979410870401967e-1 3.016887245654956e-1 3.054835015677988e-1 3.093260109887324e-1
      3.132168532282123e-1 3.171566362382531e-1 3.211459756179664e-1 3.251854947097470e-1
      3.292758246966706e-1 3.334176047011205e-1 3.376114818846476e-1 3.418581115490952e-1
      3.461581572389886e-1 3.505122908452143e-1 3.549211927100079e-1 3.593855517332547e-1
      3.639060654801352e-1 3.684834402901205e-1 3.731183913873358e-1 3.778116429923213e-1
      3.825639284351873e-1 3.873759902702038e-1 3.922485803918232e-1 3.971824601521640e-1
      4.021784004799784e-1 4.072371820011054e-1 4.123595951604505e-1 4.175464403454924e-1
      4.227985280113422e-1 4.281166788073849e-1 4.335017237055005e-1 4.389545041299113e-1
      4.444758720886531e-1 4.500666903067011e-1 4.557278323607782e-1 4.614601828158463e-1
      4.672646373633273e-1 4.731421029610544e-1 4.790934979749836e-1 4.851197523226956e-1
      4.912218076186907e-1 4.974006173215249e-1 5.036571468827859e-1 5.099923738979449e-1
      5.164072882591137e-1 5.229028923097109e-1 5.294802010010859e-1 5.361402420511040e-1
      5.428840561047274e-1 5.497126968966243e-1 5.566272314158095e-1 5.636287400723704e-1
      5.707183168662802e-1 5.778970695583347e-1 5.851661198432493e-1 5.925266035249183e-1
      5.999796706938927e-1 6.075264859070822e-1 6.151682283697159e-1 6.229060921196030e-1
      6.307412862136950e-1 6.386750349170108e-1 6.467085778939281e-1 6.548431704018790e-1
      6.630800834874951e-1 6.714206041852019e-1 6.798660357183285e-1 6.884176977027353e-1
      6.970769263530038e-1 7.058450746912302e-1 7.147235127584287e-1 7.237136278286121e-1
      7.328168246255517e-1 7.420345255422652e-1 7.513681708632772e-1 7.608192189896554e-1
      7.703891466668995e-1 7.800794492156806e-1 7.898916407654841e-1 7.998272544912059e-1
      8.098878428527016e-1 8.200749778373726e-1 8.303902512057878e-1 8.408352747403944e-1
      8.514116804973732e-1 8.621211210616391e-1 8.729652698050696e-1 8.839458211479705e-1
      8.950644908238258e-1 9.063230161473967e-1 9.177231562861678e-1 9.292666925352307e-1
      9.409554285956117e-1 9.527911908560977e-1 9.647758286786257e-1 9.769112146872343e-1
      9.891992450606793e-1 1.001641839828708e0 1.014240943172065e0 1.026998523726283e0
      1.039916574889276e0 1.052997115132823e0 1.066242188317950e0 1.079653864014287e0
      1.093234237823450e0 1.106985431706474e0 1.120909594315381e0 1.135008901328910e0
      1.149285555792464e0 1.163741788462352e0 1.178379858154336e0 1.193202052096589e0
      1.208210686287073e0 1.223408105855410e0 1.238796685429333e0 1.254378829505704e0
      1.270156972826238e0 1.286133580757933e0 1.302311149678278e0 1.318692207365336e0
      1.335279313392692e0 1.352075059529413e0 1.369082070145005e0 1.386303002619474e0
      1.403740547758561e0 1.421397430214165e0 1.439276408910094e0 1.457380277473150e0
      1.475711864669621e0 1.494274034847309e0 1.513069688383063e0 1.532101762135991e0
      1.551373229906340e0 1.570887102900154e0 1.590646430199793e0 1.610654299240343e0
      1.630913836292051e0 1.651428206948802e0 1.672200616622743e0 1.693234311045153e0
      1.714532576773573e0 1.736098741705357e0 1.757936175597656e0 1.780048290593938e0
      1.802438541757165e0 1.825110427609627e0 1.848067490679620e0 1.871313318054958e0
      1.894851541943454e0 1.918685840240489e0 1.942819937103654e0 1.967257603534689e0
      1.992002657968697e0 2.017058966870769e0 2.042430445340157e0 2.068121057721983e0
      2.094134818226703e0 2.120475791557325e0 2.147148093544516e0 2.174155891789733e0
      2.201503406316394e0 2.229194910229285e0 2.257234730382235e0 2.285627248054183e0
      2.314376899633789e0 2.343488177312594e0 2.372965629786968e0 2.402813862968837e0
      2.433037540705353e0 2.463641385507663e0 2.494630179288770e0 2.526008764110756e0
      2.557782042941344e0 2.589954980419984e0 2.622532603633625e0 2.655520002902162e0
      2.688922332573850e0 2.722744811830663e0 2.756992725503787e0 2.791671424899421e0
      2.826786328634890e0 2.862342923485349e0 2.898346765241090e0 2.934803479575628e0
      2.971718762924759e0 3.009098383376600e0 3.046948181572901e0 3.085274071621643e0
      3.124082042021109e0 3.163378156595641e0 3.203168555443078e0 3.243459455894200e0
      3.284257153484182e0 3.325568022936262e0 3.367398519157853e0 3.409755178249081e0
      3.452644618524112e0 3.496073541545254e0 3.540048733170072e0 3.584577064611740e0
      3.629665493512625e0 3.675321065031484e0 3.721550912944259e0 3.768362260758729e0
      3.815762422843242e0 3.863758805569547e0 3.912358908470101e0 3.961570325409865e0
      4.011400745772845e0 4.061857955663618e0 4.112949839123870e0 4.164684379364346e0
      4.217069660012223e0 4.270113866374163e0 4.323825286715345e0 4.378212313554460e0
      4.433283444975111e0 4.489047285953633e0 4.545512549703613e0 4.602688059037410e0
      4.660582747744666e0 4.719205661988285e0 4.778565961717897e0 4.838672922101087e0
      4.899535934972721e0 4.961164510302368e0 5.023568277680318e0 5.086756987822193e0
      5.150740514092495e0 5.215528854047395e0 5.281132130996806e0 5.347560595586233e0
      5.414824627398426e0 5.482934736575187e0 5.551901565459665e0 5.621735890259167e0
      5.692448622729033e0 5.764050811877587e0 5.836553645692540e0 5.909968452889202e0
      5.984306704680543e0 6.059580016569657e0 6.135800150164681e0 6.212979015016539e0
      6.291128670479910e0 6.370261327597433e0 6.450389351007789e0 6.531525260877673e0
      6.613681734858046e0 6.696871610065144e0 6.781107885086195e0 6.866403722010561e0
      6.952772448486309e0 7.040227559802647e0 7.128782720998670e0 7.218451768998458e0
      7.309248714773207e0 7.401187745530433e0 7.494283226930720e0 7.588549705332465e0
      7.684001910064679e0 7.780654755728564e0 7.878523344527912e0 7.977622968628807e0
      8.077969112549164e0 8.179577455578100e0 8.282463874225948e0 8.386644444704963e0
      8.492135445441209e0 8.598953359618204e0 8.707114877752328e0 8.816636900300868e0
      8.927536540302681e0 9.039831126052114e0 9.153538203806688e0 9.268675540528612e0
      9.385261126661007e0 9.503313178938921e0 9.622850143235670e0 9.743890697445156e0
      9.866453754400201e0 9.990558464827828e0 1.011622422034155e1 1.024347065647130e1
      1.037231765573165e1 1.050278535072833e1 1.063489412730414e1 1.076866462772422e1
      1.090411775390139e1 1.104127467066222e1 1.118015680905397e1 1.132078586969334e1
      1.146318382615719e1 1.160737292841588e1 1.175337570631004e1 1.190121497307073e1
      1.205091382888416e1 1.220249566450116e1 1.235598416489188e1 1.251140331294682e1
      1.266877739322405e1 1.282813099574379e1 1.298948901983068e1 1.315287667800422e1
      1.331831949991845e1 1.348584333635084e1 1.365547436324171e1 1.382723908578414e1
      1.400116434256543e1 1.417727730976086e1 1.435560550537981e1 1.453617679356569e1
      1.471901938894966e1 1.490416186105921e1 1.509163313878233e1 1.528146251488753e1
      1.547367965060105e1 1.566831458024145e1 1.586539771591243e1 1.606495985225494e1
      1.626703217125875e1 1.647164624713486e1 1.667883405124893e1 1.688862795711684e1
      1.710106074546325e1 1.731616560934350e1 1.753397615933021e1 1.775452642876501e1
      1.797785087907612e1 1.820398440516335e1 1.843296234085015e1 1.866482046440486e1
      1.889959500413104e1 1.913732264402810e1 1.937804052952352e1 1.962178627327656e1
      1.986859796105564e1 2.011851415768914e1 2.037157391309119e1 2.062781676836348e1
      2.088728276197342e1 2.115001243601041e1 2.141604684252060e1 2.168542754992119e1
      2.195819664949583e1 2.223439676197122e1 2.251407104417690e1 2.279726319578850e1
      2.308401746615580e1 2.337437866121702e1 2.366839215049956e1 2.396610387420933e1
      2.426756035040892e1 2.457280868228594e1 2.488189656551338e1 2.519487229570174e1
      2.551178477594568e1 2.583268352446503e1 2.615761868234205e1 2.648664102135630e1
      2.681980195191759e1 2.715715353109918e1 2.749874847077171e1 2.784464014583939e1
      2.819488260258026e1 2.854953056709067e1 2.890863945383666e1 2.927226537431244e1
      2.964046514580780e1 3.001329630028624e1 3.039081709337407e1 3.077308651346334e1
      3.116016429092872e1 3.155211090746035e1 3.194898760551459e1 3.235085639788286e1
      3.275778007738163e1 3.316982222666377e1 3.358704722815329e1 3.400952027410566e1
      3.443730737679369e1 3.487047537882259e1 3.530909196357404e1 3.575322566578163e1
      3.620294588224007e1 3.665832288264801e1 3.711942782058830e1 3.758633274464568e1
      3.805911060966434e1 3.853783528814769e1 3.902258158180057e1 3.951342523321768e1