<UPF version="2.0.1">
  <PP_INFO>
Generated using "atomic" code by A. Dal Corso  v.6.2.2
Author: ADC
Generation date:  4May2018
Pseudopotential type: USPP
Element: Pm
Functional: PBE
    Suggested minimum cutoff for wavefunctions:  34. Ry
    Suggested minimum cutoff for charge density: 198. Ry
    The Pseudo was generated with a Scalar-Relativistic Calculation
    Local Potential by smoothing AE potential with Bessel fncs, cutoff radius:   2.0000
    Pseudopotential contains additional information for GIPAW reconstruction.
    Valence configuration:
    nl pn  l   occ       Rcut    Rcut US       E pseu
    5S  1  0  2.00      1.400      1.700    -3.368919
    6S  2  0  1.50      1.400      1.700    -0.315025
    5P  2  1  6.00      1.400      1.900    -1.908231
    6P  3  1  0.50      1.400      1.900    -0.119635
    5D  3  2  1.00      1.400      2.000    -0.244942
    Generation configuration:
    5S  1  0  2.00      1.400      1.700    -3.368959
    6S  2  0  1.50      1.400      1.700    -0.315035
    5P  2  1  6.00      1.400      1.900    -1.908260
    6P  3  1  0.50      1.400      1.900    -0.119639
    5D  3  2  1.00      1.400      2.000    -0.244959
    5D  3  2  0.00      1.400      2.000     2.000000
    Pseudization used: troullier-martins

    <PP_INPUTFILE>
 &amp;input
   title='Pm',
   zed=61.0,
   rel=1,
   config='[Xe] 4f4.0 5d1.0 6s1.5 6p0.5',
   iswitch=3,
   dft='PBE'
 /
 &amp;inputp
   lpaw=.false.,
   use_xsd=.FALSE.,
   pseudotype=3,
   file_pseudopw='Pm.pbe-spdn-rrkjus_psl.1.0.0.UPF',
   author='ADC',
   lloc=-1,
   rcloc=2.0,
   which_augfun='PSQ',
   rmatch_augfun_nc=.true.,
   nlcc=.true.,
   new_core_ps=.true.,
   rcore=1.1,
   tm=.true.
 /
6
5S  1  0  2.00  0.00  1.40  1.70  0.0
6S  2  0  1.50  0.00  1.40  1.70  0.0
5P  2  1  6.00  0.00  1.40  1.90  0.0
6P  3  1  0.50  0.00  1.40  1.90  0.0
5D  3  2  1.00  0.00  1.40  2.00  0.0
5D  3  2  0.00  2.00  1.40  2.00  0.0
</PP_INPUTFILE>
  </PP_INFO>
  <!--
 END OF HUMAN READABLE SECTION 
-->
  <PP_HEADER generated="Generated using &quot;atomic&quot; code by A. Dal Corso  v.6.2.2" author="ADC" date=" 4May2018" comment="" element="Pm" pseudo_type="USPP" relativistic="scalar" is_ultrasoft="true" is_paw="false" is_coulomb="false" has_so="false" has_wfc="false" has_gipaw="true" paw_as_gipaw="false" core_correction="true" functional="PBE" z_valence="1.100000000000e1" total_psenergy="-1.254377381014e2" wfc_cutoff="3.379222547712e1" rho_cutoff="1.983467300023e2" l_max="2" l_max_rho="4" l_local="-1" mesh_size="1259" number_of_wfc="5" number_of_proj="6"/>
  <PP_MESH dx="1.250000000000e-2" mesh="1259" xmin="-7.000000000000e0" rmax="1.000000000000e2" zmesh="6.100000000000e1">
    <PP_R>
      1.494888468122157e-5 1.513691850277086e-5 1.532731749863250e-5 1.552011141903695e-5
      1.571533038842655e-5 1.591300491016244e-5 1.611316587129080e-5 1.631584454736903e-5
      1.652107260735264e-5 1.672888211854351e-5 1.693930555160061e-5 1.715237578561342e-5
      1.736812611323951e-5 1.758659024590651e-5 1.780780231907964e-5 1.803179689759538e-5
      1.825860898106235e-5 1.848827400933003e-5 1.872082786802635e-5 1.895630689416489e-5
      1.919474788182253e-5 1.943618808788873e-5 1.968066523788690e-5 1.992821753186909e-5
      2.017888365038493e-5 2.043270276052540e-5 2.068971452204286e-5 2.094995909354794e-5
      2.121347713878440e-5 2.148030983298295e-5 2.175049886929494e-5 2.202408646530700e-5
      2.230111536963761e-5 2.258162886861667e-5 2.286567079304916e-5 2.315328552506363e-5
      2.344451800504713e-5 2.373941373866714e-5 2.403801880398202e-5 2.434037985864077e-5
      2.464654414717332e-5 2.495655950837264e-5 2.527047438276968e-5 2.558833782020216e-5
      2.591019948747896e-5 2.623610967614040e-5 2.656611931031650e-5 2.690027995468403e-5
      2.723864382252351e-5 2.758126378387773e-5 2.792819337381269e-5 2.827948680078267e-5
      2.863519895510032e-5 2.899538541751345e-5 2.936010246788967e-5 2.972940709401009e-5
      3.010335700047388e-5 3.048201061771477e-5 3.086542711113078e-5 3.125366639032912e-5
      3.164678911848704e-5 3.204485672183060e-5 3.244793139923273e-5 3.285607613193178e-5
      3.326935469337269e-5 3.368783165917145e-5 3.411157241720541e-5 3.454064317783007e-5
      3.497511098422472e-5 3.541504372286810e-5 3.586051013414566e-5 3.631157982309044e-5
      3.676832327025906e-5 3.723081184274438e-5 3.769911780532682e-5 3.817331433176579e-5
      3.865347551623333e-5 3.913967638489137e-5 3.963199290761481e-5 4.013050200986201e-5
      4.063528158469442e-5 4.114641050494750e-5 4.166396863555506e-5 4.218803684602787e-5
      4.271869702309014e-5 4.325603208347412e-5 4.380012598687624e-5 4.435106374907585e-5
      4.490893145521915e-5 4.547381627327030e-5 4.604580646763134e-5 4.662499141293389e-5
      4.721146160800398e-5 4.780530869000274e-5 4.840662544874502e-5 4.901550584119771e-5
      4.963204500616091e-5 5.025633927913351e-5 5.088848620736572e-5 5.152858456510132e-5
      5.217673436901094e-5 5.283303689382012e-5 5.349759468813358e-5 5.417051159045872e-5
      5.485189274543069e-5 5.554184462024116e-5 5.624047502127433e-5 5.694789311095169e-5
      5.766420942478899e-5 5.838953588866770e-5 5.912398583632346e-5 5.986767402705482e-5
      6.062071666365463e-5 6.138323141056689e-5 6.215533741227227e-5 6.293715531190430e-5
      6.372880727010049e-5 6.453041698408989e-5 6.534210970702116e-5 6.616401226753376e-5
      6.699625308957486e-5 6.783896221246620e-5 6.869227131122263e-5 6.955631371712689e-5
      7.043122443856296e-5 7.131714018211095e-5 7.221419937390827e-5 7.312254218127872e-5
      7.404231053463386e-5 7.497364814965037e-5 7.591670054972534e-5 7.687161508871493e-5
      7.783854097395865e-5 7.881762928959319e-5 7.980903302016005e-5 8.081290707450906e-5
      8.182940831000353e-5 8.285869555702973e-5 8.390092964381395e-5 8.495627342155284e-5
      8.602489178985874e-5 8.710695172252581e-5 8.820262229362003e-5 8.931207470389712e-5
      9.043548230755363e-5 9.157302063931311e-5 9.272486744185425e-5 9.389120269358337e-5
      9.507220863675641e-5 9.626806980595495e-5 9.747897305691957e-5 9.870510759574687e-5
      9.994666500845307e-5 1.012038392909098e-4 1.024768268791567e-4 1.037658266800942e-4
      1.050710401025637e-4 1.063926710888178e-4 1.077309261463871e-4 1.090860143803471e-4
      1.104581475259913e-4 1.118475399819152e-4 1.132544088435169e-4 1.146789739369182e-4
      1.161214578533135e-4 1.175820859837491e-4 1.190610865543425e-4 1.205586906619416e-4
      1.220751323102351e-4 1.236106484463160e-4 1.251654789977043e-4 1.267398669098372e-4
      1.283340581840291e-4 1.299483019159098e-4 1.315828503343469e-4 1.332379588408559e-4
      1.349138860495087e-4 1.366108938273412e-4 1.383292473352710e-4 1.400692150695303e-4
      1.418310689036170e-4 1.436150841307775e-4 1.454215395070206e-4 1.472507172946740e-4
      1.491029033064889e-4 1.509783869502973e-4 1.528774612742349e-4 1.548004230125281e-4
      1.567475726318607e-4 1.587192143783228e-4 1.607156563249480e-4 1.627372104198527e-4
      1.647841925349768e-4 1.668569225154405e-4 1.689557242295205e-4 1.710809256192542e-4
      1.732328587516829e-4 1.754118598707366e-4 1.776182694497730e-4 1.798524322447785e-4
      1.821146973482346e-4 1.844054182436666e-4 1.867249528608750e-4 1.890736636318627e-4
      1.914519175474665e-4 1.938600862146986e-4 1.962985459148134e-4 1.987676776621000e-4
      2.012678672634170e-4 2.037995053784769e-4 2.063629875808852e-4 2.089587144199520e-4
      2.115870914832767e-4 2.142485294601226e-4 2.169434442055892e-4 2.196722568055873e-4
      2.224353936426382e-4 2.252332864624942e-4 2.280663724416003e-4 2.309350942554055e-4
      2.338399001475288e-4 2.367812439998013e-4 2.397595854031840e-4 2.427753897295803e-4
      2.458291282045527e-4 2.489212779809499e-4 2.520523222134661e-4 2.552227501341326e-4
      2.584330571287621e-4 2.616837448143545e-4 2.649753211174733e-4 2.683083003536136e-4
      2.716832033075616e-4 2.751005573147698e-4 2.785608963437554e-4 2.820647610795309e-4
      2.856126990080904e-4 2.892052645019535e-4 2.928430189067875e-4 2.965265306291199e-4
      3.002563752251505e-4 3.040331354906866e-4 3.078574015522034e-4 3.117297709590534e-4
      3.156508487768349e-4 3.196212476819343e-4 3.236415880572587e-4 3.277124980891710e-4
      3.318346138656458e-4 3.360085794756600e-4 3.402350471098319e-4 3.445146771623284e-4
      3.488481383340520e-4 3.532361077371274e-4 3.576792710007012e-4 3.621783223780729e-4
      3.667339648551738e-4 3.713469102604094e-4 3.760178793758841e-4 3.807476020500258e-4
      3.855368173116247e-4 3.903862734853094e-4 3.952967283084734e-4 4.002689490496728e-4
      4.053037126285147e-4 4.104018057370515e-4 4.155640249627041e-4 4.207911769127285e-4
      4.260840783402515e-4 4.314435562718904e-4 4.368704481369751e-4 4.423656018984015e-4
      4.479298761851241e-4 4.535641404263209e-4 4.592692749872429e-4 4.650461713067721e-4
      4.708957320367119e-4 4.768188711828275e-4 4.828165142476605e-4 4.888895983751429e-4
      4.950390724970246e-4 5.012658974811491e-4 5.075710462815884e-4 5.139555040906703e-4
      5.204202684929173e-4 5.269663496209191e-4 5.335947703131709e-4 5.403065662738912e-4
      5.471027862348539e-4 5.539844921192550e-4 5.609527592076400e-4 5.680086763059185e-4
      5.751533459154924e-4 5.823878844055240e-4 5.897134221873714e-4 5.971311038912168e-4
      6.046420885449182e-4 6.122475497551085e-4 6.199486758905753e-4 6.277466702679455e-4
      6.356427513397050e-4 6.436381528845871e-4 6.517341242003495e-4 6.599319302989812e-4
      6.682328521043644e-4 6.766381866524187e-4 6.851492472937691e-4 6.937673638989560e-4
      7.024938830662325e-4 7.113301683319734e-4 7.202776003837281e-4 7.293375772759596e-4
      7.385115146484889e-4 7.478008459476952e-4 7.572070226504937e-4 7.667315144911308e-4
      7.763758096908351e-4 7.861414151903517e-4 7.960298568854094e-4 8.060426798651408e-4
      8.161814486535073e-4 8.264477474537603e-4 8.368431803959741e-4 8.473693717876953e-4
      8.580279663677439e-4 8.688206295632098e-4 8.797490477496744e-4 8.908149285147131e-4
      9.020200009247093e-4 9.133660157950230e-4 9.248547459635631e-4 9.364879865677917e-4
      9.482675553252211e-4 9.601952928174352e-4 9.722730627776841e-4 9.845027523820976e-4
      9.968862725445572e-4 1.009425558215282e-3 1.022122568683171e-3 1.034979287881941e-3
      1.047997724700124e-3 1.061179913294960e-3 1.074527913410235e-3 1.088043810698125e-3
      1.101729717045078e-3 1.115587770901806e-3 1.129620137617419e-3 1.143829009777765e-3
      1.158216607548026e-3 1.172785179019627e-3 1.187537000561499e-3 1.202474377175773e-3
      1.217599642857933e-3 1.232915160961515e-3 1.248423324567382e-3 1.264126556857651e-3
      1.280027311494314e-3 1.296128073002634e-3 1.312431357159354e-3 1.328939711385791e-3
      1.345655715145882e-3 1.362581980349222e-3 1.379721151759187e-3 1.397075907406178e-3
      1.414648959006074e-3 1.432443052383941e-3 1.450460967903071e-3 1.468705520899421e-3
      1.487179562121517e-3 1.505885978175884e-3 1.524827691978090e-3 1.544007663209454e-3
      1.563428888779502e-3 1.583094403294243e-3 1.603007279530329e-3 1.623170628915185e-3
      1.643587602013176e-3 1.664261389017887e-3 1.685195220250597e-3 1.706392366665027e-3
      1.727856140358432e-3 1.749589895089118e-3 1.771597026800480e-3 1.793880974151622e-3
      1.816445219054655e-3 1.839293287218750e-3 1.862428748701045e-3 1.885855218464466e-3
      1.909576356942574e-3 1.933595870611518e-3 1.957917512569174e-3 1.982545083121585e-3
      2.007482430376753e-3 2.032733450845923e-3 2.058302090052415e-3 2.084192343148124e-3
      2.110408255537774e-3 2.136953923511012e-3 2.163833494882464e-3 2.191051169639845e-3
      2.218611200600209e-3 2.246517894074467e-3 2.274775610540250e-3 2.303388765323249e-3
      2.332361829287109e-3 2.361699329532021e-3 2.391405850102088e-3 2.421486032701588e-3
      2.451944577420248e-3 2.482786243467650e-3 2.514015849916860e-3 2.545638276457427e-3
      2.577658464157830e-3 2.610081416237546e-3 2.642912198848801e-3 2.676155941868170e-3
      2.709817839698140e-3 2.743903152078730e-3 2.778417204909347e-3 2.813365391080965e-3
      2.848753171318773e-3 2.884586075035434e-3 2.920869701195057e-3 2.957609719188047e-3
      2.994811869716964e-3 3.032481965693512e-3 3.070625893146838e-3 3.109249612143202e-3
      3.148359157717282e-3 3.187960640815142e-3 3.228060249249083e-3 3.268664248664511e-3
      3.309778983518942e-3 3.351410878073346e-3 3.393566437395947e-3 3.436252248378652e-3
      3.479474980766280e-3 3.523241388198699e-3 3.567558309266114e-3 3.612432668577607e-3
      3.657871477843111e-3 3.703881836969031e-3 3.750470935167582e-3 3.797646052080146e-3
      3.845414558914718e-3 3.893783919597674e-3 3.942761691940036e-3 3.992355528818374e-3
      4.042573179370600e-3 4.093422490206783e-3 4.144911406635188e-3 4.197047973903772e-3
      4.249840338457239e-3 4.303296749209958e-3 4.357425558834866e-3 4.412235225068589e-3
      4.467734312032994e-3 4.523931491573332e-3 4.580835544613237e-3 4.638455362526772e-3
      4.696799948527707e-3 4.755878419076317e-3 4.815700005303818e-3 4.876274054454766e-3
      4.937610031347578e-3 4.999717519853432e-3 5.062606224393768e-3 5.126285971456621e-3
      5.190766711132023e-3 5.256058518666736e-3 5.322171596038521e-3 5.389116273550232e-3
      5.456903011443929e-3 5.525542401535319e-3 5.595045168868752e-3 5.665422173393024e-3
      5.736684411658286e-3 5.808843018534243e-3 5.881909268950030e-3 5.955894579655928e-3
      6.030810511007251e-3 6.106668768770706e-3 6.183481205953393e-3 6.261259824654903e-3
      6.340016777942647e-3 6.419764371750803e-3 6.500515066803163e-3 6.582281480560113e-3
      6.665076389190152e-3 6.748912729566210e-3 6.833803601287023e-3 6.919762268724026e-3
      7.006802163093883e-3 7.094936884557173e-3 7.184180204343436e-3 7.274546066902950e-3
      7.366048592085601e-3 7.458702077347111e-3 7.552520999983049e-3 7.647520019390964e-3
      7.743713979360898e-3 7.841117910394822e-3 7.939747032055124e-3 8.039616755342728e-3
      8.140742685105080e-3 8.243140622474442e-3 8.346826567336873e-3 8.451816720832200e-3
      8.558127487885512e-3 8.665775479770454e-3 8.774777516704757e-3 8.885150630478480e-3
      8.996912067115192e-3 9.110079289566750e-3 9.224669980441902e-3 9.340702044769229e-3
      9.458193612794865e-3 9.577163042815345e-3 9.697628924046153e-3 9.819610079526324e-3
      9.943125569059564e-3 1.006819469219242e-2 1.019483699122984e-2 1.032307225428870e-2
      1.045292051838973e-2 1.058440207258839e-2 1.071753746114504e-2 1.085234748673499e-2
      1.098885321369901e-2 1.112707597133467e-2 1.126703735722905e-2 1.140875924063348e-2
      1.155226376588055e-2 1.169757335584431e-2 1.184471071544382e-2 1.199369883519085e-2
      1.214456099478226e-2 1.229732076673741e-2 1.245200202008146e-2 1.260862892407493e-2
      1.276722595199024e-2 1.292781788493569e-2 1.309042981572750e-2 1.325508715281070e-2
      1.342181562422922e-2 1.359064128164591e-2 1.376159050441324e-2 1.393469000369505e-2
      1.410996682664030e-2 1.428744836060916e-2 1.446716233745238e-2 1.464913683784452e-2
      1.483340029567147e-2 1.501998150247341e-2 1.520890961194350e-2 1.540021414448321e-2
      1.559392499181499e-2 1.579007242165282e-2 1.598868708243169e-2 1.618980000809643e-2
      1.639344262295082e-2 1.659964674656778e-2 1.680844459876113e-2 1.701986880462009e-2
      1.723395239960696e-2 1.745072883471901e-2 1.767023198171527e-2 1.789249613840905e-2
      1.811755603402702e-2 1.834544683463576e-2 1.857620414863650e-2 1.880986403232905e-2
      1.904646299554563e-2 1.928603800735559e-2 1.952862650184195e-2 1.977426638395050e-2
      2.002299603541263e-2 2.027485432074237e-2 2.052988059330926e-2 2.078811470148722e-2
      2.104959699488101e-2 2.131436833063101e-2 2.158247007979708e-2 2.185394413382301e-2
      2.212883291108203e-2 2.240717936350486e-2 2.268902698329101e-2 2.297441980970449e-2
      2.326340243595505e-2 2.355602001616599e-2 2.385231827242953e-2 2.415234350195108e-2
      2.445614258428313e-2 2.476376298865038e-2 2.507525278136688e-2 2.539066063334644e-2
      2.571003582770769e-2 2.603342826747449e-2 2.636088848337350e-2 2.669246764172969e-2
      2.702821755246112e-2 2.736819067717447e-2 2.771244013736216e-2 2.806101972270270e-2
      2.841398389946551e-2 2.877138781902129e-2 2.913328732645965e-2 2.949973896931491e-2
      2.987080000640180e-2 3.024652841676231e-2 3.062698290872496e-2 3.101222292907820e-2
      3.140230867235896e-2 3.179730109025827e-2 3.219726190114506e-2 3.260225359970970e-2
      3.301233946672913e-2 3.342758357895436e-2 3.384805081912274e-2 3.427380688609602e-2
      3.470491830512581e-2 3.514145243824852e-2 3.558347749481055e-2 3.603106254212628e-2
      3.648427751626998e-2 3.694319323300342e-2 3.740788139884105e-2 3.787841462225417e-2
      3.835486642501627e-2 3.883731125369084e-2 3.932582449126389e-2 3.982048246892277e-2
      4.032136247798279e-2 4.082854278196447e-2 4.134210262882212e-2 4.186212226332667e-2
      4.238868293960404e-2 4.292186693383117e-2 4.346175755709194e-2 4.400843916839462e-2
      4.456199718785320e-2 4.512251811003455e-2 4.569008951747299e-2 4.626480009435573e-2
      4.684673964037977e-2 4.743599908478297e-2 4.803267050055254e-2 4.863684711881096e-2
      4.924862334338414e-2 4.986809476555190e-2 5.049535817898412e-2 5.113051159486551e-2
      5.177365425720932e-2 5.242488665836516e-2 5.308431055472070e-2 5.375202898260120e-2
      5.442814627436969e-2 5.511276807472837e-2 5.580600135722652e-2 5.650795444097502e-2
      5.721873700757118e-2 5.793846011823726e-2 5.866723623117345e-2 5.940517921913018e-2
      6.015240438720077e-2 6.090902849083778e-2 6.167516975409696e-2 6.245094788810922e-2
      6.323648410978643e-2 6.403190116076156e-2 6.483732332656683e-2 6.565287645605457e-2
      6.647868798106026e-2 6.731488693631493e-2 6.816160397960671e-2 6.901897141219607e-2
      6.988712319948888e-2 7.076619499196796e-2 7.165632414638945e-2 7.255764974724487e-2
      7.347031262849287e-2 7.439445539556568e-2 7.533022244765065e-2 7.627776000025359e-2
      7.723721610804500e-2 7.820874068799348e-2 7.919248554279156e-2 8.018860438457388e-2
      8.119725285893630e-2 8.221858856925513e-2 8.325277110131280e-2 8.429996204823428e-2
      8.536032503573525e-2 8.643402574768999e-2 8.752123195201934e-2 8.862211352690437e-2
      8.973684248733122e-2 9.086559301196761e-2 9.200854147037958e-2 9.316586645058932e-2
      9.433774878697919e-2 9.552437158854886e-2 9.672592026752490e-2 9.794258256833317e-2
      9.917454859693363e-2 1.004220108505244e-1 1.016851642476208e-1 1.029642061585109e-1
      1.042593364360956e-1 1.055707574471158e-1 1.068986741037723e-1 1.082432938957448e-1
      1.096048269226110e-1 1.109834859266766e-1 1.123794863262161e-1 1.137930462491317e-1
      1.152243865670377e-1 1.166737309297704e-1 1.181413058003355e-1 1.196273404902924e-1
      1.211320671955844e-1 1.226557210328211e-1 1.241985400760139e-1 1.257607653937775e-1
      1.273426410869963e-1 1.289444143269654e-1 1.305663353940128e-1 1.322086577166045e-1
      1.338716379109450e-1 1.355555358210734e-1 1.372606145594634e-1 1.389871405481374e-1
      1.407353835602934e-1 1.425056167624590e-1 1.442981167571740e-1 1.461131636262088e-1
      1.479510409743300e-1 1.498120359736119e-1 1.516964394083097e-1 1.536045457202940e-1
      1.555366530550578e-1 1.574930633083035e-1 1.594740821731129e-1 1.614800191877144e-1
      1.635111877838480e-1 1.655679053357386e-1 1.676504932096887e-1 1.697592768142901e-1
      1.718945856512716e-1 1.740567533669838e-1 1.762461178045304e-1 1.784630210565598e-1
      1.807078095187149e-1 1.829808339437601e-1 1.852824494963867e-1 1.876130158087069e-1
      1.899728970364492e-1 1.923624619158559e-1 1.947820838213016e-1 1.972321408236318e-1
      1.997130157492373e-1 2.022250962398732e-1 2.047687748132264e-1 2.073444489242496e-1
      2.099525210272630e-1 2.125933986388382e-1 2.152674944014759e-1 2.179752261480785e-1
      2.207170169672411e-1 2.234932952693568e-1 2.263044948535589e-1 2.291510549755024e-1
      2.320334204159968e-1 2.349520415505074e-1 2.379073744195233e-1 2.408998807998187e-1
      2.439300282766041e-1 2.469982903165868e-1 2.501051463419537e-1 2.532510818052791e-1
      2.564365882653799e-1 2.596621634641219e-1 2.629283114041914e-1 2.662355424278501e-1
      2.695843732966732e-1 2.729753272722974e-1 2.764089341981811e-1 2.798857305823911e-1
      2.834062596814371e-1 2.869710715851523e-1 2.905807233026498e-1 2.942357788493550e-1
      2.979368093351323e-1 3.016843930535257e-1 3.054791155721150e-1 3.093215698240145e-1
      3.132123562005191e-1 3.171520826449151e-1 3.211413647474757e-1 3.251808258416448e-1
      3.292710971014372e-1 3.334128176400595e-1 3.376066346097711e-1 3.418532033030071e-1
      3.461531872547643e-1 3.505072583462843e-1 3.549160969100340e-1 3.593803918360078e-1
      3.639008406793716e-1 3.684781497694529e-1 3.731130343201103e-1 3.778062185414853e-1
      3.825584357531594e-1 3.873704284987418e-1 3.922429486618877e-1 3.971767575837866e-1
      4.021726261821209e-1 4.072313350715221e-1 4.123536746855475e-1 4.175404454001819e-1
      4.227924576589027e-1 4.281105320993114e-1 4.334954996813575e-1 4.389482018171829e-1
      4.444694905025886e-1 4.500602284501656e-1 4.557212892240933e-1 4.614535573766336e-1
      4.672579285863494e-1 4.731353097980497e-1 4.790866193645072e-1 4.851127871899505e-1
      4.912147548753611e-1 4.973934758656060e-1 5.036499155984088e-1 5.099850516552076e-1
      5.163998739139011e-1 5.228953847035164e-1 5.294725989608315e-1 5.361325443889537e-1
      5.428762616179067e-1 5.497048043672289e-1 5.566192396106158e-1 5.636206477426432e-1
      5.707101227475746e-1 5.778887723703040e-1 5.851577182894411e-1 5.925180962925726e-1
      5.999710564537384e-1 6.075177633131244e-1 6.151593960590327e-1 6.228971487121279e-1
      6.307322303120023e-1 6.386658651060987e-1 6.466992927409926e-1 6.548337684560973e-1
      6.630705632797939e-1 6.714109642280296e-1 6.798562745054230e-1 6.884078137088854e-1
      6.970669180338161e-1 7.058349404828846e-1 7.147132510774346e-1 7.237032370715621e-1
      7.328063031688665e-1 7.420238717419471e-1 7.513573830546479e-1 7.608082954870979e-1
      7.703780857635959e-1 7.800682491833394e-1 7.898802998540789e-1 7.998157709286962e-1
      8.098762148447571e-1 8.200632035670953e-1 8.303783288334207e-1 8.408232024030443e-1
      8.513994563087129e-1 8.621087431116139e-1 8.729527361596015e-1 8.839331298486485e-1
      8.950516398876104e-1 9.063100035663030e-1 9.177099800269534e-1 9.292533505390798e-1
      9.409419187778072e-1 9.527775111057048e-1 9.647619768581549e-1 9.768971886323113e-1
      9.891850425797058e-1 1.001627458702514e0 1.014226381153572e0 1.026983778540146e0
      1.039901644231530e0 1.052981996670524e0 1.066226879688803e0 1.079638362826290e0
      1.093218541654512e0 1.106969538104035e0 1.120893500796037e0 1.134992605378011e0
      1.149269054863735e0 1.163725079977491e0 1.178362939502607e0 1.193184920634422e0
      1.208193339337637e0 1.223390540708212e0 1.238778899339782e0 1.254360819694687e0
      1.270138736479688e0 1.286115115026380e0 1.302292451676415e0 1.318673274171563e0
      1.335260142048658e0 1.352055647039559e0 1.369062413476086e0 1.386283098700098e0
      1.403720393478699e0 1.421377022424670e0 1.439255744422212e0 1.457359353058005e0
      1.475690677057735e0 1.494252580728073e0 1.513047964404228e0 1.532079764903143e0
      1.551350955982363e0 1.570864548804703e0 1.590623592408745e0 1.610631174185247e0
      1.630890420359573e0 1.651404496480150e0 1.672176607913110e0 1.693210000343129e0
      1.714507960280561e0 1.736073815574984e0 1.757910935935157e0 1.780022733455567e0
      1.802412663149568e0 1.825084223489219e0 1.848040956951956e0 1.871286450574083e0
      1.894824336511273e0 1.918658292606097e0 1.942792042962678e0 1.967229358528616e0
      1.991974057684180e0 2.017030006838960e0 2.042401121035991e0 2.068091364563478e0
      2.094104751574247e0 2.120445346712934e0 2.147117265751124e0 2.174124676230436e0
      2.201471798113697e0 2.229162904444346e0 2.257202322014078e0 2.285594432038937e0
      2.314343670843885e0 2.343454530555967e0 2.372931559806248e0 2.402779364440511e0
      2.433002608238961e0 2.463606013644934e0 2.494594362502780e0 2.525972496805065e0
      2.557745319449100e0 2.589917795003073e0 2.622494950481749e0 2.655481876131940e0
      2.688883726227902e0 2.722705719876657e0 2.756953141833532e0 2.791631343327888e0
      2.826745742899251e0 2.862301827244007e0 2.898305152072663e0 2.934761342977978e0
      2.971676096313957e0 3.009055180085901e0 3.046904434851710e0 3.085229774634434e0
      3.124037187846394e0 3.163332738224863e0 3.203122565779524e0 3.243412887751898e0
      3.284209999586751e0 3.325520275915818e0 3.367350171553825e0 3.409706222507060e0
      3.452595046994668e0 3.496023346482722e0 3.539997906731379e0 3.584525598855151e0
      3.629613380396511e0 3.675268296413070e0 3.721497480578329e0 3.768308156296374e0
      3.815707637830529e0 3.863703331446206e0 3.912302736568194e0 3.961513446952406e0
      4.011343151872466e0 4.061799637321153e0 4.112890787226960e0 4.164624584686021e0
      4.217009113209426e0 4.270052557986340e0 4.323763207162939e0 4.378149453137413e0
      4.433219793871362e0 4.488982834217550e0 4.545447287264492e0 4.602621975697861e0
      4.660515833179032e0 4.719137905741038e0 4.778497353201969e0 4.838603450596266e0
      4.899465589623943e0 4.961093280118030e0 5.023496151530567e0 5.086683954437154e0
      5.150666562060561e0 5.215453971813411e0 5.281056306860271e0 5.347483817699481e0
      5.414746883764736e0 5.482856015046968e0 5.551821853736517e0 5.621655175885974e0
      5.692366893094017e0 5.763968054210308e0 5.836469847061953e0 5.909883600201602e0
      5.984220784677523e0 6.059493015826053e0 6.135712055086429e0 6.212889811838616e0
      6.291038345264136e0 6.370169866230308e0 6.450296739198301e0 6.531431484155014e0
      6.613586778569428e0 6.696775459373452e0 6.781010524967686e0 6.866305137252531e0
      6.952672623684665e0 7.040126479359572e0 7.128680369120141e0 7.218348129691785e0
      7.309143771844550e0 7.401081482582221e0 7.494175627359162e0 7.588440752324911e0
      7.683891586597000e0 7.780543044562507e0 7.878410228208351e0 7.977508429481102e0
      8.077853132676340e0 8.179460016858066e0 8.282344958308681e0 8.386524033009577e0
      8.492013519153147e0 8.598829899686237e0 8.706989864885593e0 8.816510314965859e0
      8.927408362720154e0 9.039701336194078e0 9.153406781393214e0 9.268542465024673e0
      9.385126377273309e0 9.503176734612564e0 9.622711982650964e0 9.743750799014233e0
      9.866312096263643e0 9.990415024851281e0 1.011607897611219e1 1.024332358529444e1
      1.037216873462712e1 1.050263455642690e1 1.063474143624392e1 1.076851001604688e1
      1.090396119744856e1 1.104111614497163e1 1.117999628935566e1 1.132062333090581e1
      1.146301924288337e1 1.160720627493933e1 1.175320695659082e1 1.190104410074134e1
      1.205074080724547e1 1.220232046651815e1 1.235580676318953e1 1.251122367980577e1
      1.266859550057623e1 1.282794681516814e1 1.298930252254856e1 1.315268783487507e1
      1.331812828143515e1 1.348564971263512e1 1.365527830403949e1 1.382704056046071e1
      1.400096332010085e1 1.417707375874495e1 1.435539939400731e1 1.453596808963130e1
      1.471880805984292e1 1.490394787375955e1 1.509141645985379e1 1.528124311047358e1
      1.547345748641934e1 1.566808962157832e1 1.586516992761765e1 1.606472919873614e1
      1.626679861647584e1 1.647140975459446e1 1.667859458399855e1 1.688838547773925e1
      1.710081521607056e1 1.731591699157123e1 1.753372441433138e1 1.775427151720387e1
      1.797759276112227e1 1.820372304048533e1 1.843269768860919e1 1.866455248324854e1
      1.889932365218669e1 1.913704787889648e1 1.937776230827200e1 1.962150455243252e1
      1.986831269659965e1 2.011822530504798e1 2.037128142713108e1 2.062752060338289e1
      2.088698287169596e1 2.114970877357768e1 2.141573936048464e1 2.168511620023734e1
      2.195788138351507e1 2.223407753043260e1 2.251374779719987e1 2.279693588286500e1
      2.308368603614255e1 2.337404306232741e1 2.366805233029559e1 2.396575977959343e1
      2.426721192761551e1 2.457245587687332e1 2.488153932235497e1 2.519451055897758e1
      2.551141848913371e1 2.583231263033210e1 2.615724312293523e1 2.648626073799369e1
      2.681941688517913e1 2.715676362081746e1 2.749835365602236e1 2.784424036493184e1
      2.819447779304794e1 2.854912066568127e1 2.890822439650229e1 2.927184509619946e1
      2.964003958124694e1 3.001286538278217e1 3.039038075559506e1 3.077264468723077e1
      3.115971690720624e1 3.155165789634340e1 3.194852889621926e1 3.235039191873490e1
      3.275730975580526e1 3.316934598917018e1 3.358656500032947e1 3.400903198060252e1
      3.443681294131439e1 3.486997472411064e1 3.530858501140099e1 3.575271233693524e1
      3.620242609651166e1 3.665779655882000e1 3.711889487642159e1 3.758579309686653e1
      3.805856417395175e1 3.853728197911996e1 3.902202131300207e1 3.951285791710531e1
      4.000986848564756e1 4.051313067754140e1 4.102272312852829e1 4.153872546346531e1
      4.206121830876727e1 4.259028330500411e1 4.312600311965796e1 4.366846146003987e1
      4.421774308636901e1 4.477393382501718e1 4.533712058191870e1 4.590739135615022e1
      4.648483525368055e1 4.706954250129331e1 4.766160446068571e1 4.826111364274329e1
      4.886816372199554e1 4.948284955125251e1 5.010526717642541e1 5.073551385153467e1
      5.137368805390533e1 5.201988949955502e1 5.267421915877438e1 5.333677927190375e1
      5.400767336530895e1 5.468700626755687e1 5.537488412579567e1 5.607141442234028e1
      5.677670599146648e1 5.749086903641704e1 5.821401514662053e1 5.894625731512801e1
      5.968770995626818e1 6.043848892352449e1 6.119871152763828e1 6.196849655493789e1
      6.274796428590011e1 6.353723651394382e1 6.433643656446025e1 6.514568931408347e1
      6.596512121020185e1 6.679486029071640e1 6.763503620404669e1 6.848578022938828e1