<UPF version="2.0.1">
  <PP_INFO>
Generated using "atomic" code by A. Dal Corso  v.6.2.2
Author: ADC
Generation date:  4May2018
Pseudopotential type: USPP
Element: Pr
Functional: PBE
    Suggested minimum cutoff for wavefunctions:  41. Ry
    Suggested minimum cutoff for charge density: 309. Ry
    The Pseudo was generated with a Scalar-Relativistic Calculation
    Local Potential by smoothing AE potential with Bessel fncs, cutoff radius:   2.0000
    Pseudopotential contains additional information for GIPAW reconstruction.
    Valence configuration:
    nl pn  l   occ       Rcut    Rcut US       E pseu
    5S  1  0  2.00      1.300      1.600    -3.142972
    6S  2  0  1.50      1.300      1.600    -0.304447
    5P  2  1  6.00      1.400      1.800    -1.805121
    6P  3  1  0.50      1.400      1.800    -0.119190
    5D  3  2  1.00      1.100      1.700    -0.255303
    Generation configuration:
    5S  1  0  2.00      1.300      1.600    -3.143013
    6S  2  0  1.50      1.300      1.600    -0.304456
    5P  2  1  6.00      1.400      1.800    -1.805149
    6P  3  1  0.50      1.400      1.800    -0.119194
    5D  3  2  1.00      1.100      1.700    -0.255322
    5D  3  2  0.00      1.100      1.700     2.000000
    Pseudization used: troullier-martins

    <PP_INPUTFILE>
 &amp;input
   title='Pr',
   zed=59.0,
   rel=1,
   config='[Xe] 4f2.0 5d1.0 6s1.5 6p0.5',
   iswitch=3,
   dft='PBE'
 /
 &amp;inputp
   lpaw=.false.,
   use_xsd=.FALSE.,
   pseudotype=3,
   file_pseudopw='Pr.pbe-spdn-rrkjus_psl.1.0.0.UPF',
   author='ADC',
   lloc=-1,
   rcloc=2.0,
   which_augfun='PSQ',
   rmatch_augfun_nc=.true.,
   nlcc=.true.,
   new_core_ps=.true.,
   rcore=1.4,
   tm=.true.
 /
6
5S  1  0  2.00  0.00  1.30  1.60  0.0
6S  2  0  1.50  0.00  1.30  1.60  0.0
5P  2  1  6.00  0.00  1.40  1.80  0.0
6P  3  1  0.50  0.00  1.40  1.80  0.0
5D  3  2  1.00  0.00  1.10  1.70  0.0
5D  3  2  0.00  2.00  1.10  1.70  0.0
</PP_INPUTFILE>
  </PP_INFO>
  <!--
 END OF HUMAN READABLE SECTION 
-->
  <PP_HEADER generated="Generated using &quot;atomic&quot; code by A. Dal Corso  v.6.2.2" author="ADC" date=" 4May2018" comment="" element="Pr" pseudo_type="USPP" relativistic="scalar" is_ultrasoft="true" is_paw="false" is_coulomb="false" has_so="false" has_wfc="false" has_gipaw="true" paw_as_gipaw="false" core_correction="true" functional="PBE" z_valence="1.100000000000e1" total_psenergy="-8.398802515228e1" wfc_cutoff="4.100564004928e1" rho_cutoff="3.092827198972e2" l_max="2" l_max_rho="4" l_local="-1" mesh_size="1255" number_of_wfc="5" number_of_proj="6"/>
  <PP_MESH dx="1.250000000000e-2" mesh="1255" xmin="-7.000000000000e0" rmax="1.000000000000e2" zmesh="5.900000000000e1">
    <PP_R>
      1.545562653482231e-5 1.565003438422072e-5 1.584688758333190e-5 1.604621689086871e-5
      1.624805345244101e-5 1.645242880542219e-5 1.665937488387693e-5 1.686892402355103e-5
      1.708110896692390e-5 1.729596286832465e-5 1.751351929911249e-5 1.773381225292234e-5
      1.795687615097644e-5 1.818274584746266e-5 1.841145663498064e-5 1.864304425005625e-5
      1.887754487872548e-5 1.911499516218868e-5 1.935543220253572e-5 1.959889356854335e-5
      1.984541730154533e-5 2.009504192137649e-5 2.034780643239154e-5 2.060375032955957e-5
      2.086291360463527e-5 2.112533675240762e-5 2.139106077702737e-5 2.166012719841397e-5
      2.193257805874318e-5 2.220845592901627e-5 2.248780391571172e-5 2.277066566752079e-5
      2.305708538216769e-5 2.334710781331554e-5 2.364077827755931e-5 2.393814266150647e-5
      2.423924742894702e-5 2.454413962811349e-5 2.485286689903226e-5 2.516547748096758e-5
      2.548202021995885e-5 2.580254457645308e-5 2.612710063303306e-5 2.645573910224292e-5
      2.678851133451215e-5 2.712546932617906e-5 2.746666572761537e-5 2.781215385145298e-5
      2.816198768091413e-5 2.851622187824646e-5 2.887491179326396e-5 2.923811347199563e-5
      2.960588366544270e-5 2.997827983844612e-5 3.035536017866559e-5 3.073718360567145e-5
      3.112380978015097e-5 3.151529911323053e-5 3.191171277591487e-5 3.231311270864536e-5
      3.271956163097812e-5 3.313112305138419e-5 3.354786127717282e-5 3.396984142453964e-5
      3.439712942874125e-5 3.482979205439761e-5 3.526789690592423e-5 3.571151243809550e-5
      3.616070796674081e-5 3.661555367957550e-5 3.707612064716754e-5 3.754248083404266e-5
      3.801470710992887e-5 3.849287326114249e-5 3.897705400211755e-5 3.946732498707989e-5
      3.996376282186835e-5 4.046644507590464e-5 4.097545029431361e-5 4.149085801019632e-5
      4.201274875705693e-5 4.254120408138641e-5 4.307630655540438e-5 4.361813978996102e-5
      4.416678844760166e-5 4.472233825579528e-5 4.528487602032966e-5 4.585448963887504e-5
      4.643126811471810e-5 4.701530157066930e-5 4.760668126314428e-5 4.820549959642318e-5
      4.881185013708886e-5 4.942582762864690e-5 5.004752800632960e-5 5.067704841208577e-5
      5.131448720975957e-5 5.195994400046004e-5 5.261351963812388e-5 5.327531624527425e-5
      5.394543722897742e-5 5.462398729700045e-5 5.531107247417200e-5 5.600680011894886e-5
      5.671127894019106e-5 5.742461901414766e-5 5.814693180165651e-5 5.887833016556022e-5
      5.961892838834117e-5 6.036884218997846e-5 6.112818874602935e-5 6.189708670593800e-5
      6.267565621157514e-5 6.346401891600983e-5 6.426229800251877e-5 6.507061820383326e-5
      6.588910582162932e-5 6.671788874626243e-5 6.755709647675068e-5 6.840686014100948e-5
      6.926731251634011e-5 7.013858805017690e-5 7.102082288109458e-5 7.191415486008034e-5
      7.281872357207355e-5 7.373467035777573e-5 7.466213833573569e-5 7.560127242471191e-5
      7.655221936631637e-5 7.751512774794361e-5 7.849014802598722e-5 7.947743254934934e-5
      8.047713558324537e-5 8.148941333330823e-5 8.251442396999597e-5 8.355232765330596e-5
      8.460328655780030e-5 8.566746489794602e-5 8.674502895377378e-5 8.783614709685972e-5
      8.894098981663362e-5 9.005972974701821e-5 9.119254169340374e-5 9.233960265996144e-5
      9.350109187730121e-5 9.467719083047626e-5 9.586808328734085e-5 9.707395532726416e-5
      9.829499537020579e-5 9.953139420615681e-5 1.007833450249508e-4 1.020510434464502e-4
      1.033346875511125e-4 1.046344779109407e-4 1.059506176208231e-4 1.072833123302669e-4
      1.086327702755319e-4 1.099992023121676e-4 1.113828219479595e-4 1.127838453762911e-4
      1.142024915099232e-4 1.156389820152004e-4 1.170935413466870e-4 1.185663967822375e-4
      1.200577784585106e-4 1.215679194069271e-4 1.230970555900829e-4 1.246454259386176e-4
      1.262132723885481e-4 1.278008399190725e-4 1.294083765908468e-4 1.310361335847469e-4
      1.326843652411148e-4 1.343533290994999e-4 1.360432859389010e-4 1.377544998185120e-4
      1.394872381189835e-4 1.412417715842001e-4 1.430183743635852e-4 1.448173240549381e-4
      1.466389017478073e-4 1.484833920674140e-4 1.503510832191230e-4 1.522422670334765e-4
      1.541572390117936e-4 1.560962983723413e-4 1.580597480970902e-4 1.600478949790544e-4
      1.620610496702289e-4 1.640995267301304e-4 1.661636446749462e-4 1.682537260273053e-4
      1.703700973666709e-4 1.725130893803706e-4 1.746830369152669e-4 1.768802790300763e-4
      1.791051590483501e-4 1.813580246121174e-4 1.836392277362060e-4 1.859491248632455e-4
      1.882880769193612e-4 1.906564493705706e-4 1.930546122798877e-4 1.954829403651462e-4
      1.979418130575501e-4 2.004316145609597e-4 2.029527339119258e-4 2.055055650404762e-4
      2.080905068316685e-4 2.107079631879168e-4 2.133583430921016e-4 2.160420606714758e-4
      2.187595352623708e-4 2.215111914757200e-4 2.242974592634058e-4 2.271187739854377e-4
      2.299755764779819e-4 2.328683131222397e-4 2.357974359141969e-4 2.387634025352497e-4
      2.417666764237162e-4 2.448077268472522e-4 2.478870289761733e-4 2.510050639577017e-4
      2.541623189911477e-4 2.573592874040329e-4 2.605964687291768e-4 2.638743687827473e-4
      2.671934997432964e-4 2.705543802317902e-4 2.739575353926419e-4 2.774034969757699e-4
      2.808928034196823e-4 2.844259999356095e-4 2.880036385926963e-4 2.916262784042607e-4
      2.952944854151443e-4 2.990088327901553e-4 3.027699009036277e-4 3.065782774301070e-4
      3.104345574361726e-4 3.143393434734218e-4 3.182932456726171e-4 3.222968818390212e-4
      3.263508775489310e-4 3.304558662474236e-4 3.346124893473352e-4 3.388213963294818e-4
      3.430832448441423e-4 3.473987008138180e-4 3.517684385372838e-4 3.561931407949497e-4
      3.606734989555453e-4 3.652102130841487e-4 3.698039920515725e-4 3.744555536451262e-4
      3.791656246807729e-4 3.839349411166944e-4 3.887642481682869e-4 3.936543004246029e-4
      3.986058619662561e-4 4.036197064848116e-4 4.086966174036758e-4 4.138373880005091e-4
      4.190428215311764e-4 4.243137313552567e-4 4.296509410631346e-4 4.350552846046853e-4
      4.405276064195823e-4 4.460687615692426e-4 4.516796158704320e-4 4.573610460305507e-4
      4.631139397846199e-4 4.689391960339927e-4 4.748377249868104e-4 4.808104483002221e-4
      4.868582992243971e-4 4.929822227483471e-4 4.991831757475812e-4 5.054621271336223e-4
      5.118200580053983e-4 5.182579618025440e-4 5.247768444606253e-4 5.313777245683202e-4
      5.380616335265755e-4 5.448296157097639e-4 5.516827286288716e-4 5.586220430967349e-4
      5.656486433953574e-4 5.727636274453315e-4 5.799681069773905e-4 5.872632077061191e-4
      5.946500695058480e-4 6.021298465887622e-4 6.097037076852486e-4 6.173728362265124e-4
      6.251384305294916e-4 6.330017039840953e-4 6.409638852427982e-4 6.490262184126214e-4
      6.571899632495255e-4 6.654563953552511e-4 6.738268063766326e-4 6.823025042074214e-4
      6.908848131926479e-4 6.995750743355517e-4 7.083746455071172e-4 7.172849016582426e-4
      7.263072350345794e-4 7.354430553940741e-4 7.446937902272444e-4 7.540608849802293e-4
      7.635458032806409e-4 7.731500271662611e-4 7.828750573166122e-4 7.927224132874404e-4
      8.026936337481516e-4 8.127902767222281e-4 8.230139198306773e-4 8.333661605385354e-4
      8.438486164044736e-4 8.544629253335488e-4 8.652107458331258e-4 8.760937572720241e-4
      8.871136601429217e-4 8.982721763280644e-4 9.095710493683073e-4 9.210120447355507e-4
      9.325969501085975e-4 9.443275756524814e-4 9.562057543013108e-4 9.682333420446659e-4
      9.804122182176016e-4 9.927442857942975e-4 1.005231471685402e-3 1.017875727039118e-3
      1.030679027546067e-3 1.043643373748004e-3 1.056770791350398e-3 1.070063331538956e-3
      1.083523071300128e-3 1.097152113745637e-3 1.110952588441091e-3 1.124926651738740e-3
      1.139076487114403e-3 1.153404305508647e-3 1.167912345672247e-3 1.182602874515994e-3
      1.197478187464909e-3 1.212540608816902e-3 1.227792492105957e-3 1.243236220469867e-3
      1.258874207022609e-3 1.274708895231397e-3 1.290742759298480e-3 1.306978304547741e-3
      1.323418067816156e-3 1.340064617850181e-3 1.356920555707128e-3 1.373988515161580e-3
      1.391271163116929e-3 1.408771200022077e-3 1.426491360293396e-3 1.444434412741981e-3
      1.462603161006280e-3 1.481000443990176e-3 1.499629136306565e-3 1.518492148726521e-3
      1.537592428634111e-3 1.556932960486930e-3 1.576516766282432e-3 1.596346906030114e-3
      1.616426478229655e-3 1.636758620355065e-3 1.657346509344916e-3 1.678193362098751e-3
      1.699302435979725e-3 1.720677029323578e-3 1.742320481954008e-3 1.764236175704520e-3
      1.786427534946853e-3 1.808898027126038e-3 1.831651163302192e-3 1.854690498699135e-3
      1.878019633259898e-3 1.901642212209216e-3 1.925561926623115e-3 1.949782514005635e-3
      1.974307758872831e-3 1.999141493344112e-3 2.024287597741011e-3 2.049750001193503e-3
      2.075532682253932e-3 2.101639669518666e-3 2.128075042257582e-3 2.154842931051450e-3
      2.181947518437360e-3 2.209393039562232e-3 2.237183782844581e-3 2.265324090644585e-3
      2.293818359942589e-3 2.322671043026144e-3 2.351886648185683e-3 2.381469740418952e-3
      2.411424942144299e-3 2.441756933922937e-3 2.472470455190295e-3 2.503570304996556e-3
      2.535061342756528e-3 2.566948489008927e-3 2.599236726185228e-3 2.631931099388186e-3
      2.665036717180130e-3 2.698558752381192e-3 2.732502442877575e-3 2.766873092439972e-3
      2.801676071552315e-3 2.836916818250891e-3 2.872600838974071e-3 2.908733709422693e-3
      2.945321075431274e-3 2.982368653850196e-3 3.019882233438957e-3 3.057867675770693e-3
      3.096330916148047e-3 3.135277964530581e-3 3.174714906473849e-3 3.214647904080260e-3
      3.255083196961936e-3 3.296027103215655e-3 3.337486020410068e-3 3.379466426585342e-3
      3.421974881265347e-3 3.465018026482612e-3 3.508602587816148e-3 3.552735375442335e-3
      3.597423285199036e-3 3.642673299663062e-3 3.688492489241236e-3 3.734888013275151e-3
      3.781867121159827e-3 3.829437153476456e-3 3.877605543139365e-3 3.926379816557439e-3
      3.975767594810132e-3 4.025776594838273e-3 4.076414630649867e-3 4.127689614541030e-3
      4.179609558332315e-3 4.232182574620571e-3 4.285416878046551e-3 4.339320786578476e-3
      4.393902722811721e-3 4.449171215284871e-3 4.505134899812319e-3 4.561802520833625e-3
      4.619182932779875e-3 4.677285101457173e-3 4.736118105447584e-3 4.795691137527679e-3
      4.856013506104917e-3 4.917094636672124e-3 4.978944073280219e-3 5.041571480029504e-3
      5.104986642579700e-3 5.169199469678972e-3 5.234219994712202e-3 5.300058377268710e-3
      5.366724904729718e-3 5.434229993875778e-3 5.502584192514402e-3 5.571798181128206e-3
      5.641882774543722e-3 5.712848923621262e-3 5.784707716965998e-3 5.857470382660585e-3
      5.931148290019584e-3 6.005752951365912e-3 6.081296023829692e-3 6.157789311169688e-3
      6.235244765617667e-3 6.313674489745984e-3 6.393090738358596e-3 6.473505920405918e-3
      6.554932600923753e-3 6.637383502996594e-3 6.720871509745643e-3 6.805409666341811e-3
      6.891011182044058e-3 6.977689432263369e-3 7.065457960652686e-3 7.154330481223146e-3
      7.244320880486896e-3 7.335443219626907e-3 7.427711736694059e-3 7.521140848831863e-3
      7.615745154529181e-3 7.711539435901248e-3 7.808538660999425e-3 7.906757986149979e-3
      8.006212758322285e-3 8.106918517526850e-3 8.208890999243435e-3 8.312146136879770e-3
      8.416700064261185e-3 8.522569118151541e-3 8.629769840805919e-3 8.738318982555326e-3
      8.848233504424005e-3 8.959530580779623e-3 9.072227602016785e-3 9.186342177274360e-3
      9.301892137186892e-3 9.418895536670707e-3 9.537370657745017e-3 9.657336012388525e-3
      9.778810345431978e-3 9.901812637487051e-3 1.002636210791212e-2 1.015247821781535e-2
      1.028018067309548e-2 1.040948942752098e-2 1.054042468584780e-2 1.067300690697645e-2
      1.080725680714871e-2 1.094319536318461e-2 1.108084381576013e-2 1.122022367272600e-2
      1.136135671246847e-2 1.150426498731212e-2 1.164897082696563e-2 1.179549684201088e-2
      1.194386592743583e-2 1.209410126621191e-2 1.224622633291649e-2 1.240026489740071e-2
      1.255624102850370e-2 1.271417909781325e-2 1.287410378347405e-2 1.303604007404358e-2
      1.320001327239669e-2 1.336604899967927e-2 1.353417319931148e-2 1.370441214104157e-2
      1.387679242505055e-2 1.405134098610848e-2 1.422808509778318e-2 1.440705237670167e-2
      1.458827078686540e-2 1.477176864401964e-2 1.495757462007789e-2 1.514571774760196e-2
      1.533622742433830e-2 1.552913341781149e-2 1.572446586997549e-2 1.592225530192332e-2
      1.612253261865617e-2 1.632532911391224e-2 1.653067647505649e-2 1.673860678803190e-2
      1.694915254237288e-2 1.716234663628194e-2 1.737822238176999e-2 1.759681350986145e-2
      1.781815417586483e-2 1.804227896470949e-2 1.826922289634969e-2 1.849902143123648e-2
      1.873171047585845e-2 1.896732638835222e-2 1.920590598418350e-2 1.944748654189953e-2
      1.969210580895396e-2 1.993980200760493e-2 2.019061384088744e-2 2.044458049866069e-2
      2.070174166373170e-2 2.096213751805568e-2 2.122580874901466e-2 2.149279655577492e-2
      2.176314265572443e-2 2.203688929099138e-2 2.231407923504444e-2 2.259475579937633e-2
      2.287896284027125e-2 2.316674476565757e-2 2.345814654204664e-2 2.375321370155888e-2
      2.405199234903827e-2 2.435452916925636e-2 2.466087143420681e-2 2.497106701049179e-2
      2.528516436680120e-2 2.560321258148599e-2 2.592526135022677e-2 2.625136099379887e-2
      2.658156246593507e-2 2.691591736128718e-2 2.725447792348786e-2 2.759729705331375e-2
      2.794442831695132e-2 2.829592595436683e-2 2.865184488778122e-2 2.901224073025195e-2
      2.937716979436265e-2 2.974668910102201e-2 3.012085638837354e-2 3.049973012081710e-2
      3.088336949814424e-2 3.127183446478815e-2 3.166518571919021e-2 3.206348472328424e-2
      3.246679371209995e-2 3.287517570348737e-2 3.328869450796353e-2 3.370741473868291e-2
      3.413140182153351e-2 3.456072200535959e-2 3.499544237231334e-2 3.543563084833656e-2
      3.588135621377415e-2 3.633268811412135e-2 3.678969707090582e-2 3.725245449270683e-2
      3.772103268631303e-2 3.819550486802049e-2 3.867594517507295e-2 3.916242867724584e-2
      3.965503138857613e-2 4.015383027923968e-2 4.065890328757792e-2 4.117032933227608e-2
      4.168818832469407e-2 4.221256118135309e-2 4.274352983657881e-2 4.328117725530384e-2
      4.382558744603130e-2 4.437684547396104e-2 4.493503747428150e-2 4.550025066562834e-2
      4.607257336371263e-2 4.665209499512047e-2 4.723890611128562e-2 4.783309840263898e-2
      4.843476471293501e-2 4.904399905375866e-2 4.966089661921533e-2 5.028555380080455e-2
      5.091806820248189e-2 5.155853865590959e-2 5.220706523589883e-2 5.286374927604738e-2
      5.352869338457236e-2 5.420200146034363e-2 5.488377870911801e-2 5.557413165997752e-2
      5.627316818197546e-2 5.698099750099034e-2 5.769773021679352e-2 5.842347832033012e-2
      5.915835521121765e-2 5.990247571546565e-2 6.065595610341662e-2 6.141891410791425e-2
      6.219146894269910e-2 6.297374132103567e-2 6.376585347457482e-2 6.456792917245191e-2
      6.538009374062666e-2 6.620247408146533e-2 6.703519869356910e-2 6.787839769185304e-2
      6.873220282787585e-2 6.959674751042732e-2 7.047216682637304e-2 7.135859756176204e-2
      7.225617822320038e-2 7.316504905949230e-2 7.408535208355520e-2 7.501723109460911e-2
      7.596083170064515e-2 7.691630134117809e-2 7.788378931028288e-2 7.886344677992319e-2
      7.985542682357194e-2 8.085988444012886e-2 8.187697657814041e-2 8.290686216032215e-2
      8.394970210839176e-2 8.500565936821292e-2 8.607489893525562e-2 8.715758788037782e-2
      8.825389537592965e-2 8.936399272218797e-2 9.048805337412169e-2 9.162625296849434e-2
      9.277876935130857e-2 9.394578260559364e-2 9.512747507954501e-2 9.632403141501607e-2
      9.753563857636832e-2 9.876248587968611e-2 1.000047650223562e-1 1.012626701130224e-1
      1.025363977019144e-1 1.038261468115591e-1 1.051321189678792e-1 1.064545182316808e-1
      1.077935512305395e-1 1.091494271910858e-1 1.105223579716968e-1 1.119125580956006e-1
      1.133202447843944e-1 1.147456379919877e-1 1.161889604389692e-1 1.176504376474074e-1
      1.191302979760898e-1 1.206287726562033e-1 1.221460958274655e-1 1.236825045747091e-1
      1.252382389649263e-1 1.268135420847811e-1 1.284086600785906e-1 1.300238421867869e-1
      1.316593407848606e-1 1.333154114227948e-1 1.349923128649963e-1 1.366903071307267e-1
      1.384096595350448e-1 1.401506387302623e-1 1.419135167479197e-1 1.436985690412946e-1
      1.455060745284389e-1 1.473363156357627e-1 1.491895783421629e-1 1.510661522237074e-1
      1.529663304988835e-1 1.548904100744123e-1 1.568386915916422e-1 1.588114794735243e-1
      1.608090819721784e-1 1.628318112170595e-1 1.648799832637269e-1 1.669539181432302e-1
      1.690539399121140e-1 1.711803767030518e-1 1.733335607761188e-1 1.755138285707067e-1
      1.777215207580944e-1 1.799569822946782e-1 1.822205624758704e-1 1.845126149906805e-1
      1.868334979769764e-1 1.891835740774468e-1 1.915632104962642e-1 1.939727790564597e-1
      1.964126562580238e-1 1.988832233367324e-1 2.013848663237186e-1 2.039179761057888e-1
      2.064829484864996e-1 2.090801842480045e-1 2.117100892136748e-1 2.143730743115122e-1
      2.170695556383567e-1 2.197999545249006e-1 2.225646976015259e-1 2.253642168649625e-1
      2.281989497457917e-1 2.310693391767926e-1 2.339758336621542e-1 2.369188873475534e-1
      2.398989600911154e-1 2.429165175352703e-1 2.459720311795072e-1 2.490659784540498e-1
      2.521988427944551e-1 2.553711137171490e-1 2.585832868959183e-1 2.618358642393564e-1
      2.651293539692911e-1 2.684642707001937e-1 2.718411355195877e-1 2.752604760694721e-1
      2.787228266287638e-1 2.822287281967820e-1 2.857787285777805e-1 2.893733824665400e-1
      2.930132515350452e-1 2.966989045202422e-1 3.004309173129092e-1 3.042098730476383e-1
      3.080363621939503e-1 3.119109826485605e-1 3.158343398287969e-1 3.198070467672014e-1
      3.238297242073164e-1 3.279030007006749e-1 3.320275127050173e-1 3.362039046837344e-1
      3.404328292065706e-1 3.447149470515869e-1 3.490509273084074e-1 3.534414474827701e-1
      3.578871936023835e-1 3.623888603241245e-1 3.669471510425775e-1 3.715627779999402e-1
      3.762364623973164e-1 3.809689345074005e-1 3.857609337885886e-1 3.906132090005187e-1
      3.955265183210630e-1 4.005016294648009e-1 4.055393198029686e-1 4.106403764849318e-1
      4.158055965611759e-1 4.210357871078449e-1 4.263317653528541e-1 4.316943588035778e-1
      4.371244053761536e-1 4.426227535264067e-1 4.481902623824204e-1 4.538278018787823e-1
      4.595362528925068e-1 4.653165073806797e-1 4.711694685198252e-1 4.770960508470280e-1
      4.830971804028358e-1 4.891737948759498e-1 4.953268437497448e-1 5.015572884506268e-1
      5.078661024982547e-1 5.142542716576603e-1 5.207227940932700e-1 5.272726805248756e-1
      5.339049543855587e-1 5.406206519816017e-1 5.474208226544190e-1 5.543065289445114e-1
      5.612788467574968e-1 5.683388655322198e-1 5.754876884109756e-1 5.827264324118854e-1
      5.900562286034246e-1 5.974782222811617e-1 6.049935731467103e-1 6.126034554889310e-1
      6.203090583674244e-1 6.281115857983152e-1 6.360122569423897e-1 6.440123062955899e-1
      6.521129838819006e-1 6.603155554486784e-1 6.686213026644160e-1 6.770315233190159e-1
      6.855475315265666e-1 6.941706579306746e-1 7.029022499123866e-1 7.117436718007121e-1
      7.206963050858098e-1 7.297615486348467e-1 7.389408189105680e-1 7.482355501926321e-1
      7.576471948017095e-1 7.671772233264198e-1 7.768271248531105e-1 7.865984071985251e-1
      7.964925971454127e-1 8.065112406810798e-1 8.166559032389630e-1 8.269281699432282e-1
      8.373296458564440e-1 8.478619562303866e-1 8.585267467599774e-1 8.693256838404356e-1
      8.802604548276523e-1 8.913327683018382e-1 9.025443543345032e-1 9.138969647587722e-1
      9.253923734431226e-1 9.370323765685507e-1 9.488187929092231e-1 9.607534641166758e-1
      9.728382550075633e-1 9.850750538550505e-1 9.974657726838553e-1 1.010012347569000e0
      1.022716738938340e0 1.035580931878871e0 1.048606936446913e0 1.061796787982185e0
      1.075152547425819e0 1.088676301642406e0 1.102370163746051e0 1.116236273430571e0
      1.130276797303817e0 1.144493929226206e0 1.158889890653529e0 1.173466930984045e0
      1.188227327909964e0 1.203173387773338e0 1.218307445926425e0 1.233631867096606e0
      1.249149045755862e0 1.264861406494931e0 1.280771404402147e0 1.296881525447049e0
      1.313194286868830e0 1.329712237569647e0 1.346437958512904e0 1.363374063126531e0
      1.380523197711324e0 1.397888041854459e0 1.415471308848157e0 1.433275746113661e0
      1.451304135630520e0 1.469559294371269e0 1.488044074741609e0 1.506761365026073e0
      1.525714089839353e0 1.544905210583262e0 1.564337725909456e0 1.584014672187996e0
      1.603939123981765e0 1.624114194526896e0 1.644543036219211e0 1.665228841106781e0
      1.686174841388711e0 1.707384309920155e0 1.728860560723724e0 1.750606949507303e0
      1.772626874188377e0 1.794923775424983e0 1.817501137153298e0 1.840362487132027e0
      1.863511397493621e0 1.886951485302412e0 1.910686413119819e0 1.934719889576594e0
      1.959055669952333e0 1.983697556762236e0 2.008649400351243e0 2.033915099495688e0
      2.059498602012457e0 2.085403905375874e0 2.111635057342296e0 2.138196156582579e0
      2.165091353322526e0 2.192324849991338e0 2.219900901878281e0 2.247823817797570e0
      2.276097960761619e0 2.304727748662799e0 2.333717654963707e0 2.363072209396189e0
      2.392795998669101e0 2.422893667184983e0 2.453369917765782e0 2.484229512387647e0
      2.515477272925027e0 2.547118081904085e0 2.579156883265587e0 2.611598683137440e0
      2.644448550616866e0 2.677711618562499e0 2.711393084396384e0 2.745498210916073e0
      2.780032327116983e0 2.815000829025018e0 2.850409180539753e0 2.886262914288155e0
      2.922567632489057e0 2.959329007828550e0 2.996552784346313e0 3.034244778333164e0
      3.072410879239854e0 3.111057050597288e0 3.150189330948378e0 3.189813834791534e0
      3.229936753536101e0 3.270564356469773e0 3.311702991738152e0 3.353359087336707e0
      3.395539152115116e0 3.438249776794320e0 3.481497634996328e0 3.525289484286960e0
      3.569632167231775e0 3.614532612465187e0 3.659997835773121e0 3.706034941189223e0
      3.752651122104867e0 3.799853662393174e0 3.847649937547086e0 3.896047415831844e0
      3.945053659451903e0 3.994676325732518e0 4.044923168316269e0 4.095802038374521e0
      4.147320885834244e0 4.199487760620175e0 4.252310813912620e0 4.305798299421141e0
      4.359958574674152e0 4.414800102324861e0 4.470331451473546e0 4.526561299006477e0
      4.583498430951747e0 4.641151743852043e0 4.699530246154813e0 4.758643059619822e0
      4.818499420744423e0 4.879108682206835e0 4.940480314327460e0 5.002623906548682e0
      5.065549168933229e0 5.129265933681354e0 5.193784156667197e0 5.259113918994346e0
      5.325265428571088e0 5.392249021705391e0 5.460075164719941e0 5.528754455587599e0
      5.598297625587270e0 5.668715540980763e0 5.740019204710636e0 5.812219758119396e0
      5.885328482690424e0 5.959356801810658e0 6.034316282555579e0 6.110218637496572e0
      6.187075726530999e0 6.264899558735411e0 6.343702294241901e0 6.423496246138230e0
      6.504293882391734e0 6.586107827797437e0 6.668950865950786e0 6.752835941245015e0
      6.837776160893815e0 6.923784796979331e0 7.010875288525912e0 7.099061243600074e0
      7.188356441436688e0 7.278774834592101e0 7.370330551124213e0 7.463037896799982e0
      7.556911357330806e0 7.651965600635855e0 7.748215479134049e0 7.845676032064739e0
      7.944362487837576e0 8.044290266412084e0 8.145474981706938e0 8.247932444039783e0
      8.351678662597573e0 8.456729847938000e0 8.563102414522534e0 8.670812983281088e0
      8.779878384209185e0 8.890315658997634e0 9.002142063695274e0 9.115375071405380e0
      9.230032375015753e0 9.346131889963369e0 9.463691757033661e0 9.582730345195001e0
      9.703266254469014e0 9.825318318836720e0 9.948905609181505e0 1.007404743626895e1
      1.020076335376411e1 1.032907316128692e1 1.045899690750583e1 1.059055489327053e1
      1.072376767478397e1 1.085865606681425e1 1.099524114594710e1 1.113354425387898e1
      1.127358700075190e1 1.141539126852999e1 1.155897921441857e1 1.170437327432635e1
      1.185159616637095e1 1.200067089442880e1 1.215162075172949e1 1.230446932449528e1
      1.245924049562668e1 1.261595844843402e1 1.277464767041629e1 1.293533295708732e1
      1.309803941585000e1 1.326279246991960e1 1.342961786229597e1 1.359854165978609e1
      1.376959025707702e1 1.394279038086004e1 1.411816909400693e1 1.429575379979837e1
      1.447557224620596e1 1.465765253022783e1 1.484202310227874e1 1.502871277063575e1
      1.521775070593930e1 1.540916644575139e1 1.560298989917086e1 1.579925135150658e1
      1.599798146900983e1 1.619921130366572e1 1.640297229804537e1 1.660929629021872e1
      1.681821551872926e1 1.702976262763156e1 1.724397067159171e1 1.746087312105244e1
      1.768050386746278e1 1.790289722857365e1 1.812808795380024e1 1.835611122965146e1
      1.858700268522812e1 1.882079839778991e1 1.905753489839255e1 1.929724917759595e1
      1.953997869124387e1 1.978576136631670e1 2.003463560685749e1 2.028664029997260e1
      2.054181482190811e1 2.080019904420215e1 2.106183333991518e1 2.132675858993824e1
      2.159501618938057e1 2.186664805403794e1 2.214169662694175e1 2.242020488499115e1
      2.270221634566812e1 2.298777507383709e1 2.327692568863037e1 2.356971337041974e1
      2.386618386787620e1 2.416638350511818e1 2.447035918894967e1 2.477815841618982e1
      2.508982928109400e1 2.540542048286902e1 2.572498133328226e1 2.604856176436665e1
      2.637621233622299e1 2.670798424491963e1 2.704392933049236e1 2.738410008504433e1
      2.772854966094792e1 2.807733187915026e1 2.843050123758244e1 2.878811291967529e1
      2.915022280298177e1 2.951688746790775e1 2.988816420655322e1 3.026411103166385e1
      3.064478668569599e1 3.103025064999512e1 3.142056315408981e1 3.181578518510300e1
      3.221597849728103e1 3.262120562164317e1 3.303152987575212e1 3.344701537360726e1
      3.386772703566306e1 3.429373059897256e1 3.472509262745929e1 3.516188052231785e1
      3.560416253254538e1 3.605200776560591e1 3.650548619822814e1 3.696466868733982e1
      3.742962698113917e1 3.790043373030542e1 3.837716249935113e1 3.885988777811625e1
      3.934868499340774e1 3.984363052078505e1 4.034480169649366e1 4.085227682954955e1
      4.136613521397459e1 4.188645714118687e1 4.241332391254620e1 4.294681785205736e1
      4.348702231923396e1 4.403402172212290e1 4.458790153049383e1 4.514874828919377e1
      4.571664963166966e1 4.629169429366183e1 4.687397212706848e1 4.746357411398582e1
      4.806059238092395e1 4.866512021320156e1 4.927725206952251e1 4.989708359673458e1
      5.052471164477506e1 5.116023428180345e1 5.180375080952457e1 5.245536177870534e1
      5.311516900488518e1 5.378327558428570e1 5.445978590991928e1 5.514480568790049e1
      5.583844195396349e1 5.654080309018592e1 5.725199884192433e1 5.797214033496199e1
      5.870134009287212e1 5.943971205460067e1 6.018737159226869e1 6.094443552920015e1
      6.171102215817557e1 6.248725125991515e1 6.327324412179551e1 6.406912355680020e1
      6.487501392271028e1 6.569104114153514e1 6.651733271918771e1 6.735401776540833e1
      6.820122701393750e1 6.905909284294407e1 6.992774929570929e1 7.080733210157094e1