<UPF version="2.0.1">
  <PP_INFO>
Generated using "atomic" code by A. Dal Corso  v.6.2.2
Author: ADC
Generation date:  7May2018
Pseudopotential type: USPP
Element: Ra
Functional: PBE
    Suggested minimum cutoff for wavefunctions:  78. Ry
    Suggested minimum cutoff for charge density: 523. Ry
    The Pseudo was generated with a Scalar-Relativistic Calculation
    Local Potential by smoothing AE potential with Bessel fncs, cutoff radius:   2.1000
    Pseudopotential contains additional information for GIPAW reconstruction.
    Valence configuration:
    nl pn  l   occ       Rcut    Rcut US       E pseu
    6S  1  0  2.00      1.200      2.000    -2.569915
    7S  2  0  2.00      1.200      2.000    -0.241171
    6P  2  1  6.00      1.200      2.200    -1.218520
    5D  3  2 10.00      0.850      1.500    -5.086174
    Generation configuration:
    6S  1  0  2.00      1.200      2.000    -2.569920
    7S  2  0  2.00      1.200      2.000    -0.241177
    7S  2  0  0.00      1.200      2.000     6.000000
    6P  2  1  6.00      1.200      2.200    -1.218533
    7P  3  1  0.00      1.200      2.200     6.500000
    5D  3  2 10.00      0.850      1.500    -5.086235
    5D  3  2 -2.00      0.850      1.500    -3.200000
    Pseudization used: troullier-martins

    <PP_INPUTFILE>
 &amp;input
   title='Ra',
   zed=88.,
   rel=1,
   config='[Xe] 4f14.0 5d10.0 6s2.0 6p6.0 6d0. 7s2. 7p0.',
   iswitch=3,
   dft='PBE'
 /
 &amp;inputp
   lpaw=.false.,
   use_xsd=.FALSE.,
   pseudotype=3,
   file_pseudopw='Ra.pbe-spdn-rrkjus_psl.1.0.0.UPF',
   author='ADC',
   lloc=-1,
   rcloc=2.1,
   which_augfun='PSQ',
   rmatch_augfun_nc=.true.,
   nlcc=.true.,
   new_core_ps=.true.,
   rcore=1.2,
   tm=.true.
 /
7
6S  1  0  2.00  0.00  1.20  2.00  0.0
7S  2  0  2.00  0.00  1.20  2.00  0.0
7S  2  0  0.00  6.00  1.20  2.00  0.0
6P  2  1  6.00  0.00  1.20  2.20  0.0
7P  3  1  0.00  6.50  1.20  2.20  0.0
5D  3  2 10.00  0.00  0.85  1.50  0.0
5D  3  2 -2.00 -3.20  0.85  1.50  0.0
</PP_INPUTFILE>
  </PP_INFO>
  <!--
 END OF HUMAN READABLE SECTION 
-->
  <PP_HEADER generated="Generated using &quot;atomic&quot; code by A. Dal Corso  v.6.2.2" author="ADC" date=" 7May2018" comment="" element="Ra" pseudo_type="USPP" relativistic="scalar" is_ultrasoft="true" is_paw="false" is_coulomb="false" has_so="false" has_wfc="false" has_gipaw="true" paw_as_gipaw="false" core_correction="true" functional="PBE" z_valence="2.000000000000e1" total_psenergy="-3.155543023016e2" wfc_cutoff="7.825908558243e1" rho_cutoff="5.234225541323e2" l_max="2" l_max_rho="4" l_local="-1" mesh_size="1287" number_of_wfc="4" number_of_proj="7"/>
  <PP_MESH dx="1.250000000000e-2" mesh="1287" xmin="-7.000000000000e0" rmax="1.000000000000e2" zmesh="8.800000000000e1">
    <PP_R>
      1.036229506311950e-5 1.049263668942071e-5 1.062461781155207e-5 1.075825905183243e-5
      1.089358129197750e-5 1.103060567636260e-5 1.116935361532658e-5 1.130984678851717e-5
      1.145210714827853e-5 1.159615692308130e-5 1.174201862099588e-5 1.188971503320930e-5
      1.203926923758648e-5 1.219070460227610e-5 1.234404478936202e-5 1.249931375856044e-5
      1.265653577096367e-5 1.281573539283105e-5 1.297693749942735e-5 1.314016727890975e-5
      1.330545023626335e-5 1.347281219728651e-5 1.364227931262615e-5 1.381387806186380e-5
      1.398763525765319e-5 1.416357804990965e-5 1.434173393005244e-5 1.452213073530028e-5
      1.470479665302100e-5 1.488976022513591e-5 1.507705035257945e-5 1.526669629981507e-5
      1.545872769940788e-5 1.565317455665474e-5 1.585006725427272e-5 1.604943655714638e-5
      1.625131361713494e-5 1.645572997793973e-5 1.666271758003299e-5 1.687230876564872e-5
      1.708453628383605e-5 1.729943329557650e-5 1.751703337896535e-5 1.773737053445832e-5
      1.796047919018429e-5 1.818639420732460e-5 1.841515088556030e-5 1.864678496858779e-5
      1.888133264970379e-5 1.911883057746069e-5 1.935931586139289e-5 1.960282607781525e-5
      1.984939927569454e-5 2.009907398259455e-5 2.035188921069625e-5 2.060788446289336e-5
      2.086709973896486e-5 2.112957554182501e-5 2.139535288385202e-5 2.166447329329632e-5
      2.193697882076942e-5 2.221291204581440e-5 2.249231608355905e-5 2.277523459145271e-5
      2.306171177608789e-5 2.335179240010749e-5 2.364552178919920e-5 2.394294583917766e-5
      2.424411102315577e-5 2.454906439880630e-5 2.485785361571460e-5 2.517052692282405e-5
      2.548713317597504e-5 2.580772184553871e-5 2.613234302414700e-5 2.646104743451947e-5
      2.679388643738901e-5 2.713091203952697e-5 2.747217690186935e-5 2.781773434774526e-5
      2.816763837120862e-5 2.852194364547498e-5 2.888070553146430e-5 2.924398008645113e-5
      2.961182407282385e-5 2.998429496695365e-5 3.036145096817557e-5 3.074335100788212e-5
      3.113005475873146e-5 3.152162264397147e-5 3.191811584688083e-5 3.231959632032917e-5
      3.272612679645730e-5 3.313777079647918e-5 3.355459264060735e-5 3.397665745810295e-5
      3.440403119745245e-5 3.483678063667208e-5 3.527497339374215e-5 3.571867793717250e-5
      3.616796359670076e-5 3.662290057412530e-5 3.708355995427440e-5 3.755001371611344e-5
      3.802233474399172e-5 3.850059683903082e-5 3.898487473065607e-5 3.947524408827333e-5
      3.997178153309236e-5 4.047456465009920e-5 4.098367200017875e-5 4.149918313239026e-5
      4.202117859639695e-5 4.254973995505205e-5 4.308494979714327e-5 4.362689175029731e-5
      4.417565049404693e-5 4.473131177306231e-5 4.529396241054876e-5 4.586369032181317e-5
      4.644058452800076e-5 4.702473517000496e-5 4.761623352255205e-5 4.821517200846296e-5
      4.882164421309476e-5 4.943574489896328e-5 5.005757002055007e-5 5.068721673929549e-5
      5.132478343878029e-5 5.197036974009856e-5 5.262407651742325e-5 5.328600591376831e-5
      5.395626135694862e-5 5.463494757574074e-5 5.532217061624731e-5 5.601803785846649e-5
      5.672265803307067e-5 5.743614123839562e-5 5.815859895764376e-5 5.889014407630368e-5
      5.963089089978846e-5 6.038095517129632e-5 6.114045408989569e-5 6.190950632883777e-5
      6.268823205409967e-5 6.347675294316023e-5 6.427519220401261e-5 6.508367459441575e-5
      6.590232644138796e-5 6.673127566094605e-5 6.757065177809198e-5 6.842058594705181e-5
      6.928121097176860e-5 7.015266132665342e-5 7.103507317759728e-5 7.192858440324712e-5
      7.283333461654982e-5 7.374946518656690e-5 7.467711926056378e-5 7.561644178637696e-5
      7.656757953506212e-5 7.753068112382760e-5 7.850589703925603e-5 7.949337966081832e-5
      8.049328328468325e-5 8.150576414782613e-5 8.253098045244196e-5 8.356909239066404e-5
      8.462026216959474e-5 8.568465403665083e-5 8.676243430522684e-5 8.785377138068263e-5
      8.895883578665650e-5 9.007780019171017e-5 9.121083943630863e-5 9.235813056013876e-5
      9.351985282977306e-5 9.469618776667964e-5 9.588731917558558e-5 9.709343317319711e-5
      9.831471821727993e-5 9.955136513610711e-5 1.008035671582757e-4 1.020715199428990e-4
      1.033554216101798e-4 1.046554727723652e-4 1.059718765650946e-4 1.073048386791388e-4
      1.086545673925398e-4 1.100212736031556e-4 1.114051708616117e-4 1.128064754046706e-4
      1.142254061890180e-4 1.156621849254758e-4 1.171170361136449e-4 1.185901870769830e-4
      1.200818679983256e-4 1.215923119558515e-4 1.231217549595018e-4 1.246704359878578e-4
      1.262385970254808e-4 1.278264831007234e-4 1.294343423240156e-4 1.310624259266321e-4
      1.327109882999483e-4 1.343802870351889e-4 1.360705829636775e-4 1.377821401975921e-4
      1.395152261712322e-4 1.412701116828079e-4 1.430470709367500e-4 1.448463815865576e-4
      1.466683247781804e-4 1.485131851939486e-4 1.503812510970561e-4 1.522728143766003e-4
      1.541881705931924e-4 1.561276190251380e-4 1.580914627152002e-4 1.600800085179515e-4
      1.620935671477188e-4 1.641324532271350e-4 1.661969853362980e-4 1.682874860625500e-4
      1.704042820508831e-4 1.725477040549767e-4 1.747180869888799e-4 1.769157699793420e-4
      1.791410964188010e-4 1.813944140190412e-4 1.836760748655213e-4 1.859864354723912e-4
      1.883258568381961e-4 1.906947045022836e-4 1.930933486019214e-4 1.955221639301293e-4
      1.979815299942445e-4 2.004718310752177e-4 2.029934562876595e-4 2.055467996406399e-4
      2.081322600992520e-4 2.107502416469532e-4 2.134011533486865e-4 2.160854094147984e-4
      2.188034292657605e-4 2.215556375977045e-4 2.243424644487817e-4 2.271643452663572e-4
      2.300217209750499e-4 2.329150380456280e-4 2.358447485647698e-4 2.388113103057049e-4
      2.418151867997406e-4 2.448568474086906e-4 2.479367673982133e-4 2.510554280120733e-4
      2.542133165473364e-4 2.574109264305111e-4 2.606487572946469e-4 2.639273150574043e-4
      2.672471120001036e-4 2.706086668477714e-4 2.740125048501918e-4 2.774591578639777e-4
      2.809491644356750e-4 2.844830698859107e-4 2.880614263946017e-4 2.916847930872322e-4
      2.953537361222199e-4 2.990688287793785e-4 3.028306515494941e-4 3.066397922250283e-4
      3.104968459919610e-4 3.144024155227906e-4 3.183571110707025e-4 3.223615505649216e-4
      3.264163597072663e-4 3.305221720699145e-4 3.346796291944010e-4 3.388893806918603e-4
      3.431520843445285e-4 3.474684062085238e-4 3.518390207179192e-4 3.562646107901238e-4
      3.607458679325903e-4 3.652834923508644e-4 3.698781930579936e-4 3.745306879853110e-4
      3.792417040946146e-4 3.840119774917564e-4 3.888422535416596e-4 3.937332869847844e-4
      3.986858420550571e-4 4.037006925992837e-4 4.087786221980644e-4 4.139204242882299e-4
      4.191269022868182e-4 4.243988697166093e-4 4.297371503332396e-4 4.351425782539166e-4
      4.406159980877501e-4 4.461582650677252e-4 4.517702451843332e-4 4.574528153208846e-4
      4.632068633905252e-4 4.690332884749722e-4 4.749330009649991e-4 4.809069227026855e-4
      4.869559871254567e-4 4.930811394119361e-4 4.992833366296297e-4 5.055635478844720e-4
      5.119227544722480e-4 5.183619500319249e-4 5.248821407009105e-4 5.314843452722613e-4
      5.381695953538744e-4 5.449389355296757e-4 5.517934235228406e-4 5.587341303610636e-4
      5.657621405439085e-4 5.728785522122656e-4 5.800844773199366e-4 5.873810418073797e-4
      5.947693857776408e-4 6.022506636744978e-4 6.098260444628424e-4 6.174967118113352e-4
      6.252638642773554e-4 6.331287154942773e-4 6.410924943611062e-4 6.491564452344920e-4
      6.573218281231645e-4 6.655899188848132e-4 6.739620094254400e-4 6.824394079012266e-4
      6.910234389229315e-4 6.997154437628662e-4 7.085167805644710e-4 7.174288245545269e-4
      7.264529682580405e-4 7.355906217158246e-4 7.448432127048221e-4 7.542121869612005e-4
      7.636990084062472e-4 7.733051593751159e-4 7.830321408484384e-4 7.928814726868596e-4
      8.028546938685183e-4 8.129533627295139e-4 8.231790572074029e-4 8.335333750877515e-4
      8.440179342537945e-4 8.546343729392323e-4 8.653843499842083e-4 8.762695450945081e-4
      8.872916591040131e-4 8.984524142404624e-4 9.097535543945520e-4 9.211968453924232e-4
      9.327840752715771e-4 9.445170545602565e-4 9.563976165603451e-4 9.684276176338280e-4
      9.806089374928465e-4 9.929434794934135e-4 1.005433170932810e-3 1.018079963350736e-3
      1.030885832834234e-3 1.043852780326465e-3 1.056982831939358e-3 1.070278039270190e-3
      1.083740479722155e-3 1.097372256828964e-3 1.111175500583523e-3 1.125152367770754e-3
      1.139305042304588e-3 1.153635735569217e-3 1.168146686764619e-3 1.182840163256439e-3
      1.197718460930277e-3 1.212783904550411e-3 1.228038848123060e-3 1.243485675264193e-3
      1.259126799571977e-3 1.274964665003906e-3 1.291001746258679e-3 1.307240549162869e-3
      1.323683611062466e-3 1.340333501219348e-3 1.357192821212723e-3 1.374264205345644e-3
      1.391550321056613e-3 1.409053869336378e-3 1.426777585149969e-3 1.444724237864040e-3
      1.462896631679594e-3 1.481297606070133e-3 1.499930036225344e-3 1.518796833500347e-3
      1.537900945870599e-3 1.557245358392528e-3 1.576833093669947e-3 1.596667212326343e-3
      1.616750813483110e-3 1.637087035243787e-3 1.657679055184402e-3 1.678530090849964e-3
      1.699643400257217e-3 1.721022282403712e-3 1.742670077783278e-3 1.764590168907989e-3
      1.786785980836678e-3 1.809260981710117e-3 1.832018683292919e-3 1.855062641522254e-3
      1.878396457063484e-3 1.902023775872756e-3 1.925948289766707e-3 1.950173736999305e-3
      1.974703902845968e-3 1.999542620195017e-3 2.024693770146574e-3 2.050161282618987e-3
      2.075949136962895e-3 2.102061362583004e-3 2.128502039567694e-3 2.155275299326538e-3
      2.182385325235843e-3 2.209836353292315e-3 2.237632672774932e-3 2.265778626915172e-3
      2.294278613575630e-3 2.323137085937206e-3 2.352358553194918e-3 2.381947581262475e-3
      2.411908793485717e-3 2.442246871365007e-3 2.472966555286739e-3 2.504072645264023e-3
      2.535570001686702e-3 2.567463546080806e-3 2.599758261877528e-3 2.632459195191919e-3
      2.665571455611339e-3 2.699100216993843e-3 2.733050718276615e-3 2.767428264294554e-3
      2.802238226609166e-3 2.837486044347883e-3 2.873177225053936e-3 2.909317345546933e-3
      2.945912052794222e-3 2.982967064793266e-3 3.020488171465077e-3 3.058481235558908e-3
      3.096952193568325e-3 3.135907056658787e-3 3.175351911606902e-3 3.215292921751511e-3
      3.255736327956705e-3 3.296688449586993e-3 3.338155685494693e-3 3.380144515019781e-3
      3.422661499002299e-3 3.465713280807492e-3 3.509306587363863e-3 3.553448230214248e-3
      3.598145106580152e-3 3.643404200439442e-3 3.689232583617610e-3 3.735637416892774e-3
      3.782625951114542e-3 3.830205528336982e-3 3.878383582965840e-3 3.927167642920164e-3
      3.976565330808584e-3 4.026584365120328e-3 4.077232561431271e-3 4.128517833625132e-3
      4.180448195130026e-3 4.233031760170602e-3 4.286276745035876e-3 4.340191469363059e-3
      4.394784357437516e-3 4.450063939509080e-3 4.506038853124920e-3 4.562717844479169e-3
      4.620109769779537e-3 4.678223596631122e-3 4.737068405437595e-3 4.796653390820063e-3
      4.856987863053713e-3 4.918081249522585e-3 4.979943096192608e-3 5.042583069103181e-3
      5.106010955877518e-3 5.170236667251973e-3 5.235270238624614e-3 5.301121831623280e-3
      5.367801735693350e-3 5.435320369705502e-3 5.503688283583666e-3 5.572916159953482e-3
      5.643014815811476e-3 5.713995204215237e-3 5.785868415994877e-3 5.858645681485957e-3
      5.932338372284276e-3 6.006958003022701e-3 6.082516233170344e-3 6.159024868854400e-3
      6.236495864704848e-3 6.314941325722407e-3 6.394373509169954e-3 6.474804826487762e-3
      6.556247845232805e-3 6.638715291042454e-3 6.722220049622901e-3 6.806775168762567e-3
      6.892393860370836e-3 6.979089502542477e-3 7.066875641647957e-3 7.155765994450116e-3
      7.245774450247431e-3 7.336915073044228e-3 7.429202103748267e-3 7.522649962395844e-3
      7.617273250404997e-3 7.713086752856988e-3 7.810105440806502e-3 7.908344473620933e-3
      8.007819201349021e-3 8.108545167119352e-3 8.210538109569010e-3 8.313813965302746e-3
      8.418388871383160e-3 8.524279167852068e-3 8.631501400283737e-3 8.740072322370125e-3
      8.850008898538693e-3 8.961328306603145e-3 9.074047940447471e-3 9.188185412743783e-3
      9.303758557704347e-3 9.420785433868184e-3 9.539284326922813e-3 9.659273752561344e-3
      9.780772459375664e-3 9.903799431785892e-3 1.002837389300677e-2 1.015451530805132e-2
      1.028224338677227e-2 1.041157808694180e-2 1.054253961736993e-2 1.067514844106223e-2
      1.080942527841721e-2 1.094539111046389e-2 1.108306718214015e-2 1.122247500561230e-2
      1.136363636363636e-2 1.150657331296175e-2 1.165130818777760e-2 1.179786360320256e-2
      1.194626245881846e-2 1.209652794224840e-2 1.224868353277991e-2 1.240275300503355e-2
      1.255876043267782e-2 1.271673019219070e-2 1.287668696666848e-2 1.303865574968264e-2
      1.320266184918504e-2 1.336873089146240e-2 1.353688882514044e-2 1.370716192523842e-2
      1.387957679727466e-2 1.405416038142369e-2 1.423093995672573e-2 1.440994314534910e-2
      1.459119791690615e-2 1.477473259282376e-2 1.496057585076843e-2 1.514875672912731e-2
      1.533930463154550e-2 1.553224933152042e-2 1.572762097705399e-2 1.592545009536334e-2
      1.612576759765066e-2 1.632860478393324e-2 1.653399334793411e-2 1.674196538203427e-2
      1.695255338228717e-2 1.716579025349629e-2 1.738170931435659e-2 1.760034430266060e-2
      1.782172938057011e-2 1.804589913995391e-2 1.827288860779299e-2 1.850273325165354e-2
      1.873546898522873e-2 1.897113217395049e-2 1.920975964067150e-2 1.945138867141892e-2
      1.969605702122042e-2 1.994380292000339e-2 2.019466507856862e-2 2.044868269463874e-2
      2.070589545898307e-2 2.096634356161933e-2 2.123006769809344e-2 2.149710907583830e-2
      2.176750942061247e-2 2.204131098301994e-2 2.231855654511191e-2 2.259928942707150e-2
      2.288355349398269e-2 2.317139316268427e-2 2.346285340871009e-2 2.375797977331656e-2
      2.405681837059857e-2 2.435941589469500e-2 2.466581962708458e-2 2.497607744397390e-2
      2.529023782377805e-2 2.560834985469556e-2 2.593046324237846e-2 2.625662831769891e-2
      2.658689604461355e-2 2.692131802812661e-2 2.725994652235339e-2 2.760283443868510e-2
      2.795003535405626e-2 2.830160351931628e-2 2.865759386770624e-2 2.901806202344235e-2
      2.938306431040735e-2 2.975265776095116e-2 3.012690012480237e-2 3.050584987809173e-2
      3.088956623248915e-2 3.127810914445577e-2 3.167153932461195e-2 3.206991824722385e-2
      3.247330815980871e-2 3.288177209286092e-2 3.329537386970119e-2 3.371417811644851e-2
      3.413825027211854e-2 3.456765659884848e-2 3.500246419225035e-2 3.544274099189540e-2
      3.588855579192919e-2 3.633997825182129e-2 3.679707890724958e-2 3.725992918112130e-2
      3.772860139473354e-2 3.820316877907307e-2 3.868370548625930e-2 3.917028660113042e-2
      3.966298815297547e-2 4.016188712741447e-2 4.066706147842705e-2 4.117859014053343e-2
      4.169655304112780e-2 4.222103111296709e-2 4.275210630681721e-2 4.328986160425753e-2
      4.383438103064742e-2 4.438574966825517e-2 4.494405366955201e-2 4.550938027067419e-2
      4.608181780505313e-2 4.666145571721831e-2 4.724838457677284e-2 4.784269609254499e-2
      4.844448312691843e-2 4.905383971034142e-2 4.967086105601997e-2 5.029564357479474e-2
      5.092828489020528e-2 5.156888385374440e-2 5.221754056030329e-2 5.287435636381215e-2
      5.353943389307664e-2 5.421287706781365e-2 5.489479111488960e-2 5.558528258476143e-2
      5.628445936812629e-2 5.699243071277913e-2 5.770930724068275e-2 5.843520096525332e-2
      5.917022530886193e-2 5.991449512055784e-2 6.066812669401340e-2 6.143123778569509e-2
      6.220394763326369e-2 6.298637697420483e-2 6.377864806469493e-2 6.458088469870394e-2
      6.539321222733784e-2 6.621575757842590e-2 6.704864927635247e-2 6.789201746214003e-2
      6.874599391378355e-2 6.961071206684075e-2 7.048630703528263e-2 7.137291563260416e-2
      7.227067639320261e-2 7.317972959402345e-2 7.410021727647855e-2 7.503228326864130e-2
      7.597607320771899e-2 7.693173456280993e-2 7.789941665794525e-2 7.887927069542087e-2
      7.987144977942386e-2 8.087610893995450e-2 8.189340515705073e-2 8.292349738531634e-2
      8.396654657875740e-2 8.502271571593280e-2 8.609216982541874e-2 8.717507601159578e-2
      8.827160348075882e-2 8.938192356755559e-2 9.050620976175887e-2 9.164463773537358e-2
      9.279738537008688e-2 9.396463278506220e-2 9.514656236508255e-2 9.634335878904977e-2
      9.755520905883975e-2 9.878230252852273e-2 1.000248309339502e-1 1.012829884227129e-1
      1.025569715844787e-1 1.038469794817082e-1 1.051532136807601e-1 1.064758782833856e-1
      1.078151799586196e-1 1.091713279750740e-1 1.105445342336351e-1 1.119350133005748e-1
      1.133429824410765e-1 1.147686616531824e-1 1.162122737021706e-1 1.176740441553602e-1
      1.191542014173588e-1 1.206529767657501e-1 1.221706043872313e-1 1.237073214142062e-1
      1.252633679618364e-1 1.268389871655610e-1 1.284344252190862e-1 1.300499314128536e-1
      1.316857581729932e-1 1.333421611007638e-1 1.350193990124931e-1 1.367177339800175e-1
      1.384374313716304e-1 1.401787598935485e-1 1.419419916318956e-1 1.437274020952184e-1
      1.455352702575346e-1 1.473658786019220e-1 1.492195131646594e-1 1.510964635799180e-1
      1.529970231250194e-1 1.549214887662587e-1 1.568701612053079e-1 1.588433449262005e-1
      1.608413482429069e-1 1.628644833475108e-1 1.649130663589878e-1 1.669874173726016e-1
      1.690878605099187e-1 1.712147239694522e-1 1.733683400779452e-1 1.755490453422958e-1
      1.777571805021383e-1 1.799930905830845e-1 1.822571249506327e-1 1.845496373647597e-1
      1.868709860351939e-1 1.892215336773879e-1 1.916016475691937e-1 1.940116996082484e-1
      1.964520663700871e-1 1.989231291669806e-1 2.014252741075186e-1 2.039588921569393e-1
      2.065243791982167e-1 2.091221360939212e-1 2.117525687488524e-1 2.144160881734646e-1
      2.171131105480871e-1 2.198440572879525e-1 2.226093551090456e-1 2.254094360947765e-1
      2.282447377634962e-1 2.311157031368594e-1 2.340227808090459e-1 2.369664250168572e-1
      2.399470957106890e-1 2.429652586264016e-1 2.460213853580917e-1 2.491159534317781e-1
      2.522494463800189e-1 2.554223538174617e-1 2.586351715173492e-1 2.618884014889841e-1
      2.651825520561673e-1 2.685181379366278e-1 2.718956803224449e-1 2.753157069614884e-1
      2.787787522398792e-1 2.822853572654869e-1 2.858360699524818e-1 2.894314451069442e-1
      2.930720445135575e-1 2.967584370233863e-1 3.004911986427591e-1 3.042709126232745e-1
      3.080981695529307e-1 3.119735674484102e-1 3.158977118485192e-1 3.198712159088029e-1
      3.238947004973558e-1 3.279687942918299e-1 3.320941338776697e-1 3.362713638475793e-1
      3.405011369022390e-1 3.447841139522950e-1 3.491209642216242e-1 3.535123653519052e-1
      3.579590035084996e-1 3.624615734876648e-1 3.670207788251219e-1 3.716373319059793e-1
      3.763119540760490e-1 3.810453757545564e-1 3.858383365482677e-1 3.906915853670595e-1
      3.956058805409324e-1 4.005819899385062e-1 4.056206910869990e-1 4.107227712937151e-1
      4.158890277690686e-1 4.211202677511431e-1 4.264173086318294e-1 4.317809780845431e-1
      4.372121141935470e-1 4.427115655849093e-1 4.482801915590971e-1 4.539188622252492e-1
      4.596284586371299e-1 4.654098729307933e-1 4.712640084639864e-1 4.771917799572956e-1
      4.831941136370771e-1 4.892719473801813e-1 4.954262308604944e-1 5.016579256973329e-1
      5.079680056056915e-1 5.143574565483951e-1 5.208272768901536e-1 5.273784775535565e-1
      5.340120821770381e-1 5.407291272748148e-1 5.475306623988502e-1 5.544177503028463e-1
      5.613914671082975e-1 5.684529024726456e-1 5.756031597595302e-1 5.828433562112012e-1
      5.901746231230851e-1 5.975981060205506e-1 6.051149648379055e-1 6.127263740996314e-1
      6.204335231039117e-1 6.282376161084601e-1 6.361398725186835e-1 6.441415270782258e-1
      6.522438300618890e-1 6.604480474709998e-1 6.687554612312211e-1 6.771673693928522e-1
      6.856850863336597e-1 6.943099429642428e-1 7.030432869359987e-1 7.118864828516922e-1
      7.208409124786743e-1 7.299079749647949e-1 7.390890870570114e-1 7.483856833227693e-1
      7.577992163741501e-1 7.673311570948425e-1 7.769829948699797e-1 7.867562378188482e-1
      7.966524130305438e-1 8.066730668025787e-1 8.168197648824894e-1 8.270940927124968e-1
      8.374976556772255e-1 8.480320793545559e-1 8.586990097696214e-1 8.695001136519988e-1
      8.804370786961474e-1 8.915116138251040e-1 9.027254494575152e-1 9.140803377780149e-1
      9.255780530110016e-1 9.372203916978762e-1 9.490091729777415e-1 9.609462388716590e-1
      9.730334545704622e-1 9.852727087261918e-1 9.976659137472151e-1 1.010215006097027e0
      1.022921946596839e0 1.035788720731960e0 1.048817338962022e0 1.062009837035133e0
      1.075368276305956e0 1.088894744057806e0 1.102591353828789e0 1.116460245742046e0
      1.130503586840159e0 1.144723571423740e0 1.159122421394315e0 1.173702386601487e0
      1.188465745194480e0 1.203414803978114e0 1.218551898773234e0 1.233879394781700e0
      1.249399686955950e0 1.265115200373208e0 1.281028390614424e0 1.297141744147944e0
      1.313457778718042e0 1.329979043738317e0 1.346708120690038e0 1.363647623525518e0
      1.380800199076534e0 1.398168527467915e0 1.415755322536312e0 1.433563332254229e0
      1.451595339159421e0 1.469854160789647e0 1.488342650122939e0 1.507063696023371e0
      1.526020223692449e0 1.545215195126195e0 1.564651609577940e0 1.584332504026990e0
      1.604260953653147e0 1.624440072317204e0 1.644873013047513e0 1.665562968532627e0
      1.686513171620189e0 1.707726895822057e0 1.729207455825791e0 1.750958208012602e0
      1.772982550981762e0 1.795283926081676e0 1.817865817947576e0 1.840731755046004e0
      1.863885310226159e0 1.887330101278137e0 1.911069791498244e0 1.935108090261377e0
      1.959448753600618e0 1.984095584794142e0 2.009052434959460e0 2.034323203655189e0
      2.059911839490357e0 2.085822340741363e0 2.112058755976754e0 2.138625184689778e0
      2.165525777938977e0 2.192764738996780e0 2.220346324006261e0 2.248274842646202e0
      2.276554658804453e0 2.305190191259828e0 2.334185914372538e0 2.363546358783303e0
      2.393276112121304e0 2.423379819720977e0 2.453862185347888e0 2.484727971933684e0
      2.515982002320309e0 2.547629160013606e0 2.579674389946342e0 2.612122699250896e0
      2.644979158041617e0 2.678248900207029e0 2.711937124212044e0 2.746049093910190e0
      2.780590139366141e0 2.815565657688527e0 2.850981113873234e0 2.886842041657355e0
      2.923154044383807e0 2.959922795876895e0 2.997154041328855e0 3.034853598197524e0
      3.073027357115376e0 3.111681282809893e0 3.150821415035614e0 3.190453869517836e0
      3.230584838908193e0 3.271220593752310e0 3.312367483469547e0 3.354031937345139e0
      3.396220465534779e0 3.438939660081816e0 3.482196195947325e0 3.525996832053027e0
      3.570348412337434e0 3.615257866825205e0 3.660732212709961e0 3.706778555450776e0
      3.753404089882374e0 3.800616101339375e0 3.848421966794632e0 3.896829156011868e0
      3.945845232712898e0 3.995477855759418e0 4.045734780349763e0 4.096623859230656e0
      4.148153043924193e0 4.200330385970332e0 4.253164038184911e0 4.306662255933586e0
      4.360833398421731e0 4.415685930000555e0 4.471228421489732e0 4.527469551516544e0
      4.584418107871990e0 4.642082988883870e0 4.700473204807145e0 4.759597879231868e0
      4.819466250508689e0 4.880087673192431e0 4.941471619503734e0 5.003627680809078e0
      5.066565569119517e0 5.130295118608131e0 5.194826287146692e0 5.260169157861586e0
      5.326333940709284e0 5.393330974071738e0 5.461170726371697e0 5.529863797708491e0
      5.599420921514281e0 5.669852966231159e0 5.741170937009426e0 5.813385977427093e0
      5.886509371231159e0 5.960552544100687e0 6.035527065432058e0 6.111444650146789e0
      6.188317160521925e0 6.266156608043622e0 6.344975155283932e0 6.424785117801194e0
      6.505598966064453e0 6.587429327401892e0 6.670288987973964e0 6.754190894771230e0
      6.839148157637298e0 6.925174051317365e0 7.012282017532315e0 7.100485667079102e0
      7.189798781957433e0 7.280235317523192e0 7.371809404669079e0 7.464535352032496e0
      7.558427648231384e0 7.653500964128062e0 7.749770155121539e0 7.847250263468800e0
      7.945956520635066e0 8.045904349673856e0 8.147109367636817e0 8.249587388013881e0
      8.353354423204250e0 8.458426687018262e0 8.564820597210923e0 8.672552778047178e0
      8.781640062899433e0 8.892099496877915e0 9.003948339493887e0 9.117204067356580e0
      9.231884376903908e0 9.348007187167527e0 9.465590642572826e0 9.584653115773905e0
      9.705213210524450e0 9.827289764584565e0 9.950901852664158e0 1.007606878940351e1
      1.020281013239112e1 1.033114568521968e1 1.046109550058047e1 1.059267988339646e1
      1.072591939399522e1 1.086083485132134e1 1.099744733618951e1 1.113577819457846e1
      1.127584904096621e1 1.141768176170752e1 1.156129851845354e1 1.170672175161470e1
      1.185397418386709e1 1.200307882370279e1 1.215405896902516e1 1.230693821078905e1
      1.246174043668703e1 1.261848983488188e1 1.277721089778592e1 1.293792842588819e1
      1.310066753162942e1 1.326545364332597e1 1.343231250914309e1 1.360127020111800e1
      1.377235311923385e1 1.394558799554462e1 1.412100189835223e1 1.429862223643587e1
      1.447847676333470e1 1.466059358168453e1 1.484500114760867e1 1.503172827516452e1
      1.522080414084567e1 1.541225828814078e1 1.560612063214991e1 1.580242146425869e1
      1.600119145687154e1 1.620246166820423e1 1.640626354713671e1 1.661262893812727e1
      1.682159008618803e1 1.703317964192355e1 1.724743066663242e1 1.746437663747310e1
      1.768405145269496e1 1.790648943693475e1 1.813172534658010e1 1.835979437520018e1
      1.859073215904463e1 1.882457478261211e1 1.906135878428822e1 1.930112116205503e1
      1.954389937927187e1 1.978973137052906e1 2.003865554757545e1 2.029071080532008e1
      2.054593652790981e1 2.080437259488309e1 2.106605938740112e1 2.133103779455769e1
      2.159934921976796e1 2.187103558723804e1 2.214613934851562e1 2.242470348912305e1
      2.270677153527410e1 2.299238756067478e1 2.328159619341020e1 2.357444262291765e1
      2.387097260704747e1 2.417123247921305e1 2.447526915563023e1 2.478313014264829e1
      2.509486354417286e1 2.541051806918205e1 2.573014303933769e1 2.605378839669157e1
      2.638150471148928e1 2.671334319007180e1 2.704935568287643e1 2.738959469253890e1
      2.773411338209660e1 2.808296558329575e1 2.843620580500257e1 2.879388924172027e1
      2.915607178221368e1 2.952281001824149e1 2.989416125339927e1 3.027018351207309e1
      3.065093554850580e1 3.103647685597782e1 3.142686767610273e1 3.182216900824050e1
      3.222244261902856e1 3.262775105203286e1 3.303815763752078e1 3.345372650235614e1
      3.387452258001964e1 3.430061162075458e1 3.473206020184033e1 3.516893573799562e1
      3.561130649191166e1 3.605924158491882e1 3.651281100778679e1 3.697208563166055e1
      3.743713721913462e1 3.790803843546556e1 3.838486285992654e1 3.886768499730406e1
      3.935658028953926e1 3.985162512751636e1 4.035289686299833e1 4.086047382071373e1
      4.137443531059499e1 4.189486164017039e1 4.242183412711290e1 4.295543511194558e1
      4.349574797090803e1 4.404285712898378e1 4.459684807309176e1 4.515780736544422e1