<UPF version="2.0.1">
  <PP_INFO>
Generated using "atomic" code by A. Dal Corso  v.6.2.2
Author: ADC
Generation date:  4May2018
Pseudopotential type: USPP
Element: Rn
Functional: PBE
    Suggested minimum cutoff for wavefunctions:  49. Ry
    Suggested minimum cutoff for charge density: 213. Ry
    The Pseudo was generated with a Scalar-Relativistic Calculation
    Local Potential by smoothing AE potential with Bessel fncs, cutoff radius:   1.9000
    Pseudopotential contains additional information for GIPAW reconstruction.
    Valence configuration:
    nl pn  l   occ       Rcut    Rcut US       E pseu
    6S  1  0  2.00      1.400      1.700    -1.608059
    6P  2  1  6.00      1.400      2.000    -0.567050
    5D  3  2 10.00      1.400      1.550    -3.400485
    Generation configuration:
    6S  1  0  2.00      1.400      1.700    -1.608052
    6S  1  0  0.00      1.400      1.700     4.000000
    6P  2  1  6.00      1.400      2.000    -0.567047
    6P  2  1  0.00      1.400      2.000     7.000000
    5D  3  2 10.00      1.400      1.550    -3.400485
    5D  3  2  0.00      1.400      1.550     5.500000
    Pseudization used: troullier-martins

    <PP_INPUTFILE>
 &amp;input
   title='Rn',
   zed=86.,
   rel=1,
   config='[Xe] 4f14 6s2 6p6 5d10',
   iswitch=3,
   dft='PBE'
 /
 &amp;inputp
   lpaw=.false.,
   use_xsd=.FALSE.,
   pseudotype=3,
   file_pseudopw='Rn.pbe-dn-rrkjus_psl.1.0.0.UPF',
   author='ADC',
   lloc=-1,
   rcloc=1.9,
   which_augfun='PSQ',
   rmatch_augfun_nc=.true.,
   nlcc=.true.,
   new_core_ps=.true.,
   rcore=1.5,
   tm=.true.
 /
6
6S  1  0  2.00  0.00  1.40  1.70  0.0
6S  1  0  0.00  4.00  1.40  1.70  0.0
6P  2  1  6.00  0.00  1.40  2.00  0.0
6P  2  1  0.00  7.00  1.40  2.00  0.0
5D  3  2 10.00  0.00  1.40  1.55  0.0
5D  3  2  0.00  5.50  1.40  1.55  0.0
</PP_INPUTFILE>
  </PP_INFO>
  <!--
 END OF HUMAN READABLE SECTION 
-->
  <PP_HEADER generated="Generated using &quot;atomic&quot; code by A. Dal Corso  v.6.2.2" author="ADC" date=" 4May2018" comment="" element="Rn" pseudo_type="USPP" relativistic="scalar" is_ultrasoft="true" is_paw="false" is_coulomb="false" has_so="false" has_wfc="false" has_gipaw="true" paw_as_gipaw="false" core_correction="true" functional="PBE" z_valence="1.800000000000e1" total_psenergy="-2.374387549512e2" wfc_cutoff="4.945730591473e1" rho_cutoff="2.130064103936e2" l_max="2" l_max_rho="4" l_local="-1" mesh_size="1285" number_of_wfc="3" number_of_proj="6"/>
  <PP_MESH dx="1.250000000000e-2" mesh="1285" xmin="-7.000000000000e0" rmax="1.000000000000e2" zmesh="8.600000000000e1">
    <PP_R>
      1.060327866923856e-5 1.073665149615142e-5 1.087170194670445e-5 1.100845112280528e-5
      1.114692039179093e-5 1.128713138976638e-5 1.142910602498533e-5 1.157286648127339e-5
      1.171843522149431e-5 1.186583499105994e-5 1.201508882148415e-5 1.216622003398161e-5
      1.231925224311175e-5 1.247420936046857e-5 1.263111559841695e-5 1.278999547387579e-5
      1.295087381214888e-5 1.311377575080386e-5 1.327872674360009e-5 1.344575256446579e-5
      1.361487931152528e-5 1.378613341117689e-5 1.395954162222210e-5 1.413513104004668e-5
      1.431292910085443e-5 1.449296358595406e-5 1.467526262610017e-5 1.485985470588866e-5
      1.504676866820754e-5 1.523603371874372e-5 1.542767943054641e-5 1.562173574864798e-5
      1.581823299474295e-5 1.601720187192578e-5 1.621867346948836e-5 1.642267926777769e-5
      1.662925114311482e-5 1.683842137277553e-5 1.705022264003376e-5 1.726468803926846e-5
      1.748185108113456e-5 1.770174569779920e-5 1.792440624824361e-5 1.814986752363177e-5
      1.837816475274671e-5 1.860933360749494e-5 1.884341020848031e-5 1.908043113064798e-5
      1.932043340899923e-5 1.956345454437839e-5 1.980953250933226e-5 2.005870575404352e-5
      2.031101321233860e-5 2.056649430777116e-5 2.082518895978221e-5 2.108713758993738e-5
      2.135238112824311e-5 2.162096101954187e-5 2.189291922998811e-5 2.216829825360554e-5
      2.244714111892685e-5 2.272949139571706e-5 2.301539320178136e-5 2.330489120985859e-5
      2.359803065460156e-5 2.389485733964487e-5 2.419541764476198e-5 2.449975853311202e-5
      2.480792755857800e-5 2.511997287319714e-5 2.543594323468471e-5 2.575588801405252e-5
      2.607985720332329e-5 2.640790142334194e-5 2.674007193168531e-5 2.707642063067108e-5
      2.741700007546783e-5 2.776186348230667e-5 2.811106473679654e-5 2.846465840234398e-5
      2.882269972867859e-5 2.918524466048603e-5 2.955234984614951e-5 2.992407264660116e-5
      3.030047114428486e-5 3.068160415223165e-5 3.106753122324942e-5 3.145831265922821e-5
      3.185400952056242e-5 3.225468363569173e-5 3.266039761076178e-5 3.307121483940660e-5
      3.348719951265399e-5 3.390841662895543e-5 3.433493200434240e-5 3.476681228271000e-5
      3.520412494623041e-5 3.564693832589700e-5 3.609532161220127e-5 3.654934486594396e-5
      3.700907902918218e-5 3.747459593631426e-5 3.794596832530405e-5 3.842326984904631e-5
      3.890657508687526e-5 3.939595955621758e-5 3.989149972439225e-5 4.039327302055876e-5
      4.090135784781545e-5 4.141583359545034e-5 4.193678065134571e-5 4.246428041453887e-5
      4.299841530794108e-5 4.353926879121604e-5 4.408692537382103e-5 4.464147062821120e-5
      4.520299120321082e-5 4.577157483755213e-5 4.634731037358478e-5 4.693028777115765e-5
      4.752059812167520e-5 4.811833366233066e-5 4.872358779051837e-5 4.933645507842721e-5
      4.995703128781791e-5 5.058541338498568e-5 5.122169955591170e-5 5.186598922160468e-5
      5.251838305363565e-5 5.317898298986830e-5 5.384789225038658e-5 5.452521535362338e-5
      5.521105813269161e-5 5.590552775192076e-5 5.660873272360190e-5 5.732078292494246e-5
      5.804178961523508e-5 5.877186545324204e-5 5.951112451479828e-5 6.025968231063635e-5
      6.101765580443469e-5 6.178516343109390e-5 6.256232511524209e-5 6.334926228997356e-5
      6.414609791582293e-5 6.495295649997791e-5 6.576996411573383e-5 6.659724842219284e-5
      6.743493868421093e-5 6.828316579259596e-5 6.914206228455926e-5 7.001176236442510e-5
      7.089240192460045e-5 7.178411856680816e-5 7.268705162358790e-5 7.360134218006681e-5
      7.452713309600445e-5 7.546456902811498e-5 7.641379645266989e-5 7.737496368838576e-5
      7.834822091959847e-5 7.933372021973055e-5 8.033161557505268e-5 8.134206290874433e-5
      8.236522010525729e-5 8.340124703498487e-5 8.445030557924294e-5 8.551255965556322e-5
      8.658817524330626e-5 8.767732040959624e-5 8.878016533558096e-5 8.989688234302408e-5
      9.102764592122991e-5 9.217263275430806e-5 9.333202174878094e-5 9.450599406153735e-5
      9.569473312813990e-5 9.689842469148616e-5 9.811725683083175e-5 9.935141999117844e-5
      1.006011070130306e-4 1.018665131625282e-4 1.031478361619565e-4 1.044452762206409e-4
      1.057590360662305e-4 1.070893209763737e-4 1.084363388107945e-4 1.098003000437699e-4
      1.111814177970175e-4 1.125799078729964e-4 1.139959887886259e-4 1.154298818094304e-4
      1.168818109841114e-4 1.183520031795566e-4 1.198406881162878e-4 1.213480984043547e-4
      1.228744695796820e-4 1.244200401408713e-4 1.259850515864669e-4 1.275697484526917e-4
      1.291743783516548e-4 1.307991920100426e-4 1.324444433082951e-4 1.341103893202747e-4
      1.357972903534355e-4 1.375054099894956e-4 1.392350151256235e-4 1.409863760161407e-4
      1.427597663147493e-4 1.445554631172918e-4 1.463737470050465e-4 1.482149020885706e-4
      1.500792160520916e-4 1.519669801984591e-4 1.538784894946621e-4 1.558140426179166e-4
      1.577739420023364e-4 1.597584938861877e-4 1.617680083597397e-4 1.638027994137178e-4
      1.658631849883634e-4 1.679494870231149e-4 1.700620315069096e-4 1.722011485291209e-4
      1.743671723311362e-4 1.765604413585807e-4 1.787812983142027e-4 1.810300902114197e-4
      1.833071684285406e-4 1.856128887636700e-4 1.879476114903008e-4 1.903117014136096e-4
      1.927055279274565e-4 1.951294650721042e-4 1.975838915926638e-4 2.000691909982719e-4
      2.025857516220176e-4 2.051339666816182e-4 2.077142343408608e-4 2.103269577718176e-4
      2.129725452178393e-4 2.156514100573475e-4 2.183639708684234e-4 2.211106514942123e-4
      2.238918811091503e-4 2.267080942860232e-4 2.295597310638695e-4 2.324472370167376e-4
      2.353710633233069e-4 2.383316668373867e-4 2.413295101592993e-4 2.443650617081631e-4
      2.474387957950834e-4 2.505511926972648e-4 2.537027387330554e-4 2.568939263379354e-4
      2.601252541414605e-4 2.633972270451741e-4 2.667103563014992e-4 2.700651595936230e-4
      2.734621611163850e-4 2.769018916581847e-4 2.803848886839171e-4 2.839116964189539e-4
      2.874828659341791e-4 2.910989552320947e-4 2.947605293340110e-4 2.984681603683306e-4
      3.022224276599459e-4 3.060239178207595e-4 3.098732248413429e-4 3.137709501837499e-4
      3.177177028754949e-4 3.217140996047160e-4 3.257607648165328e-4 3.298583308106174e-4
      3.340074378399934e-4 3.382087342110752e-4 3.424628763849685e-4 3.467705290800432e-4
      3.511323653757965e-4 3.555490668180243e-4 3.600213235253127e-4 3.645498342968707e-4
      3.691353067217204e-4 3.737784572892566e-4 3.784800115012027e-4 3.832407039849693e-4
      3.880612786084429e-4 3.929424885962158e-4 3.978850966472796e-4 4.028898750541980e-4
      4.079576058237794e-4 4.130890807992670e-4 4.182851017840658e-4 4.235464806670260e-4
      4.288740395493024e-4 4.342686108728095e-4 4.397310375502917e-4 4.452621730970311e-4
      4.508628817642093e-4 4.565340386739513e-4 4.622765299560619e-4 4.680912528864866e-4
      4.739791160275142e-4 4.799410393697389e-4 4.859779544758130e-4 4.920908046260037e-4
      4.982805449655835e-4 5.045481426540741e-4 5.108945770163653e-4 5.173208396957386e-4
      5.238279348088120e-4 5.304168791024350e-4 5.370887021125595e-4 5.438444463251045e-4
      5.506851673388481e-4 5.576119340303659e-4 5.646258287210461e-4 5.717279473462044e-4
      5.789193996263250e-4 5.862013092404577e-4 5.935748140017956e-4 6.010410660354584e-4
      6.086012319585160e-4 6.162564930622768e-4 6.240080454968621e-4 6.318571004581103e-4
      6.398048843768287e-4 6.478526391104232e-4 6.560016221369459e-4 6.642531067515732e-4
      6.726083822655637e-4 6.810687542077158e-4 6.896355445283573e-4 6.983100918059064e-4
      7.070937514560230e-4 7.159878959433979e-4 7.249939149962030e-4 7.341132158232369e-4
      7.433472233338090e-4 7.526973803603786e-4 7.621651478840041e-4 7.717520052626238e-4
      7.814594504622063e-4 7.912890002908163e-4 8.012421906356114e-4 8.113205767028331e-4
      8.215257332608095e-4 8.318592548860140e-4 8.423227562122262e-4 8.529178721828155e-4
      8.636462583062082e-4 8.745095909145631e-4 8.855095674257017e-4 8.966479066083338e-4
      9.079263488506182e-4 9.193466564321009e-4 9.309106137990765e-4 9.426200278434095e-4
      9.544767281848696e-4 9.664825674570066e-4 9.786394215966325e-4 9.909491901369403e-4
      1.003413796504308e-3 1.016035188318842e-3 1.028815337698690e-3 1.041756241568194e-3
      1.054859921969913e-3 1.068128426380568e-3 1.081563828030971e-3 1.095168226229962e-3
      1.108943746692438e-3 1.122892541871498e-3 1.137016791294768e-3 1.151318701904957e-3
      1.165800508404695e-3 1.180464473605710e-3 1.195312888782400e-3 1.210348074029845e-3
      1.225572378626329e-3 1.240988181400421e-3 1.256597891102667e-3 1.272403946781965e-3
      1.288408818166674e-3 1.304615006050509e-3 1.321025042683299e-3 1.337641492166656e-3
      1.354466950854616e-3 1.371504047759332e-3 1.388755444961856e-3 1.406223838028101e-3
      1.423911956430023e-3 1.441822563972108e-3 1.459958459223225e-3 1.478322475953902e-3
      1.496917483579119e-3 1.515746387606648e-3 1.534812130091050e-3 1.554117690093378e-3
      1.573666084146659e-3 1.593460366727238e-3 1.613503630732038e-3 1.633799007961839e-3
      1.654349669610624e-3 1.675158826761085e-3 1.696229730886365e-3 1.717565674358103e-3
      1.739169990960874e-3 1.761046056413101e-3 1.783197288894517e-3 1.805627149580268e-3
      1.828339143181717e-3 1.851336818494073e-3 1.874623768950894e-3 1.898203633185563e-3
      1.922080095599843e-3 1.946256886939565e-3 1.970737784877560e-3 1.995526614603940e-3
      2.020627249423781e-3 2.046043611362344e-3 2.071779671777890e-3 2.097839451982219e-3
      2.124227023869009e-3 2.150946510550050e-3 2.178002086999501e-3 2.205397980706225e-3
      2.233138472334351e-3 2.261227896392136e-3 2.289670641909233e-3 2.318471153122502e-3
      2.347633930170412e-3 2.377163529796211e-3 2.407064566059916e-3 2.437341711059277e-3
      2.467999695659803e-3 2.499043310233961e-3 2.530477405409686e-3 2.562306892828302e-3
      2.594536745911975e-3 2.627172000640825e-3 2.660217756339796e-3 2.693679176475452e-3
      2.727561489462765e-3 2.761869989482071e-3 2.796610037306305e-3 2.831787061138614e-3
      2.867406557460543e-3 2.903474091890858e-3 2.939995300055191e-3 2.976975888466629e-3
      3.014421635417344e-3 3.052338391881482e-3 3.090732082429382e-3 3.129608706153302e-3
      3.168974337604797e-3 3.208835127743875e-3 3.249197304900087e-3 3.290067175745732e-3
      3.331451126281281e-3 3.373355622833202e-3 3.415787213064336e-3 3.458752526996984e-3
      3.502258278048864e-3 3.546311264082085e-3 3.590918368465348e-3 3.636086561149464e-3
      3.681822899756435e-3 3.728134530682220e-3 3.775028690213369e-3 3.822512705657722e-3
      3.870593996489299e-3 3.919280075507610e-3 3.968578550011557e-3 4.018497122988075e-3
      4.069043594315761e-3 4.120225861983591e-3 4.172051923325021e-3 4.224529876267576e-3
      4.277667920598167e-3 4.331474359244337e-3 4.385957599571594e-3 4.441126154697082e-3
      4.496988644819785e-3 4.553553798567430e-3 4.610830454360383e-3 4.668827561792638e-3
      4.727554183030225e-3 4.787019494227195e-3 4.847232786959400e-3 4.908203469676343e-3
      4.969941069171242e-3 5.032455232069623e-3 5.095755726336622e-3 5.159852442803254e-3
      5.224755396711879e-3 5.290474729281089e-3 5.357020709290303e-3 5.424403734684287e-3
      5.492634334197845e-3 5.561723169000978e-3 5.631681034364682e-3 5.702518861347748e-3
      5.774247718504766e-3 5.846878813615593e-3 5.920423495436618e-3 5.994893255474003e-3
      6.070299729779260e-3 6.146654700767415e-3 6.223970099058027e-3 6.302258005339388e-3
      6.381530652256123e-3 6.461800426320602e-3 6.543079869848325e-3 6.625381682917709e-3
      6.708718725354499e-3 6.793104018741117e-3 6.878550748451341e-3 6.965072265710531e-3
      7.052682089681783e-3 7.141393909578348e-3 7.231221586802561e-3 7.322179157111750e-3
      7.414280832811324e-3 7.507541004975488e-3 7.601974245695899e-3 7.697595310358539e-3
      7.794419139949298e-3 7.892460863388545e-3 7.991735799895027e-3 8.092259461379559e-3
      8.194047554868765e-3 8.297115984959335e-3 8.401480856303172e-3 8.507158476123742e-3
      8.614165356764165e-3 8.722518218267235e-3 8.832233990988010e-3 8.943329818239198e-3
      9.055823058969825e-3 9.169731290477635e-3 9.285072311155551e-3 9.401864143272707e-3
      9.520125035790494e-3 9.639873467213956e-3 9.761128148479157e-3 9.883908025876725e-3
      1.000823228401231e-2 1.013412034880417e-2 1.026159189051855e-2 1.039066682684321e-2
      1.052136532599953e-2 1.065370780989393e-2 1.078771495730876e-2 1.092340770713344e-2
      1.106080726163621e-2 1.119993508977700e-2 1.134081293056201e-2 1.148346279644049e-2
      1.162790697674419e-2 1.177416804117017e-2 1.192226884330731e-2 1.207223252420727e-2
      1.222408251600029e-2 1.237784254555651e-2 1.253353663819339e-2 1.269118912142968e-2
      1.285082462878661e-2 1.301246810363699e-2 1.317614480310263e-2 1.334188030200084e-2
      1.350970049684050e-2 1.367963160986850e-2 1.385170019316697e-2 1.402593313280210e-2
      1.420235765302523e-2 1.438100132052657e-2 1.456189204874261e-2 1.474505810221768e-2
      1.493052810102025e-2 1.511833102521502e-2 1.530849621939096e-2 1.550105339724655e-2
      1.569603264623260e-2 1.589346443225345e-2 1.609337960442735e-2 1.629580939990667e-2
      1.650078544875881e-2 1.670833977890843e-2 1.691850482114188e-2 1.713131341417460e-2
      1.734679880978222e-2 1.756499467799620e-2 1.778593511236488e-2 1.800965463528062e-2
      1.823618820337406e-2 1.846557121297609e-2 1.869783950564864e-2 1.893302937378501e-2
      1.917117756628056e-2 1.941232129427492e-2 1.965649823696618e-2 1.990374654749844e-2
      2.015410485892321e-2 2.040761229023603e-2 2.066430845248882e-2 2.092423345497918e-2
      2.118742791151756e-2 2.145393294677327e-2 2.172379020270026e-2 2.199704184504384e-2
      2.227373056992903e-2 2.255389961053203e-2 2.283759274383545e-2 2.312485429746851e-2
      2.341572915663345e-2 2.371026277111879e-2 2.400850116240102e-2 2.431049093083555e-2
      2.461627926293808e-2 2.492591393875768e-2 2.523944333934236e-2 2.555691645429887e-2
      2.587838288944732e-2 2.620389287457219e-2 2.653349727127098e-2 2.686724758090122e-2
      2.720519595262782e-2 2.754739519157141e-2 2.789389876705927e-2 2.824476082098010e-2
      2.860003617624361e-2 2.895978034534688e-2 2.932404953904825e-2 2.969290067515031e-2
      3.006639138739357e-2 3.044458003446165e-2 3.082752570910010e-2 3.121528824734967e-2
      3.160792823789587e-2 3.200550703153613e-2 3.240808675076572e-2 3.281573029948488e-2
      3.322850137282751e-2 3.364646446711350e-2 3.406968488992680e-2 3.449822877031941e-2
      3.493216306914456e-2 3.537155558951937e-2 3.581647498741897e-2 3.626699078240460e-2
      3.672317336848568e-2 3.718509402511947e-2 3.765282492834841e-2 3.812643916207761e-2
      3.860601072949478e-2 3.909161456463291e-2 3.958332654407928e-2 4.008122349883113e-2
      4.058538322630048e-2 4.109588450247062e-2 4.161280709420442e-2 4.213623177170861e-2
      4.266624032115402e-2 4.320291555745470e-2 4.374634133720831e-2 4.429660257179840e-2
      4.485378524066247e-2 4.541797640472621e-2 4.598926422000671e-2 4.656773795138755e-2
      4.715348798656599e-2 4.774660585017687e-2 4.834718421809313e-2 4.895531693190652e-2
      4.957109901359096e-2 5.019462668034937e-2 5.082599735964833e-2 5.146530970444112e-2
      5.211266360858215e-2 5.276816022243613e-2 5.343190196868244e-2 5.410399255831940e-2
      5.478453700686913e-2 5.547364165078608e-2 5.617141416407307e-2 5.687796357510473e-2
      5.759340028366411e-2 5.831783607819259e-2 5.905138415325676e-2 5.979415912723595e-2
      6.054627706023082e-2 6.130785547219872e-2 6.207901336131604e-2 6.285987122257170e-2
      6.365055106659541e-2 6.445117643872122e-2 6.526187243829250e-2 6.608276573820869e-2
      6.691398460471780e-2 6.775565891745906e-2 6.860792018975603e-2 6.947090158916653e-2
      7.034473795829013e-2 7.122956583583705e-2 7.212552347796363e-2 7.303275087987403e-2
      7.395138979769569e-2 7.488158377062865e-2 7.582347814337341e-2 7.677722008884226e-2
      7.774295863115431e-2 7.872084466892177e-2 7.971103099882770e-2 8.071367233950042e-2
      8.172892535568954e-2 8.275694868274414e-2 8.379790295140076e-2 8.485195081288182e-2
      8.591925696430989e-2 8.699998817444287e-2 8.809431330973080e-2 8.920240336070265e-2
      9.032443146868346e-2 9.146057295284759e-2 9.261100533761372e-2 9.377590838038227e-2
      9.495546409962380e-2 9.614985680331946e-2 9.735927311775889e-2 9.858390201670211e-2
      9.982393485090579e-2 1.010795653780233e-1 1.023509897928792e-1 1.036384067581248e-1
      1.049420174352806e-1 1.062620255161666e-1 1.075986372547313e-1 1.089520614992783e-1
      1.103225097250991e-1 1.117101960675176e-1 1.131153373553476e-1 1.145381531447742e-1
      1.159788657536596e-1 1.174377002962797e-1 1.189148847185001e-1 1.204106498333918e-1
      1.219252293572973e-1 1.234588599463490e-1 1.250117812334460e-1 1.265842358656994e-1
      1.281764695423443e-1 1.297887310531322e-1 1.314212723172045e-1 1.330743484224549e-1
      1.347482176653884e-1 1.364431415914792e-1 1.381593850360395e-1 1.398972161655993e-1
      1.416569065198079e-1 1.434387310538635e-1 1.452429681814746e-1 1.470698998183630e-1
      1.489198114263144e-1 1.507929920577806e-1 1.526897344010469e-1 1.546103348259626e-1
      1.565550934302524e-1 1.585243140864042e-1 1.605183044891523e-1 1.625373762035540e-1
      1.645818447136722e-1 1.666520294718715e-1 1.687482539487317e-1 1.708708456835923e-1
      1.730201363357308e-1 1.751964617361836e-1 1.774001619402230e-1 1.796315812804887e-1
      1.818910684207927e-1 1.841789764105981e-1 1.864956627401823e-1 1.888414893964983e-1
      1.912168229197333e-1 1.936220344605830e-1 1.960574998382447e-1 1.985235995991379e-1
      2.010207190763682e-1 2.035492484499336e-1 2.061095828076935e-1 2.087021222071006e-1
      2.113272717377101e-1 2.139854415844776e-1 2.166770470918491e-1 2.194025088286614e-1
      2.221622526538566e-1 2.249567097830212e-1 2.277863168557677e-1 2.306515160039574e-1
      2.335527549207868e-1 2.364904869307399e-1 2.394651710604190e-1 2.424772721102725e-1
      2.455272607272166e-1 2.486156134781784e-1 2.517428129245590e-1 2.549093476976334e-1
      2.581157125749031e-1 2.613624085574027e-1 2.646499429479852e-1 2.679788294305884e-1
      2.713495881504968e-1 2.747627457956192e-1 2.782188356787808e-1 2.817183978210579e-1
      2.852619790361555e-1 2.888501330158471e-1 2.924834204164930e-1 2.961624089466406e-1
      2.998876734557333e-1 3.036597960239302e-1 3.074793660530558e-1 3.113469803586995e-1
      3.152632432634640e-1 3.192287666913965e-1 3.232441702636011e-1 3.273100813950541e-1
      3.314271353926432e-1 3.355959755544307e-1 3.398172532701737e-1 3.440916281231044e-1
      3.484197679929887e-1 3.528023491604879e-1 3.572400564128248e-1 3.617335831507868e-1
      3.662836314970694e-1 3.708909124059825e-1 3.755561457745433e-1 3.802800605549555e-1
      3.850633948685153e-1 3.899068961209414e-1 3.948113211191577e-1 3.997774361895492e-1
      4.048060172976983e-1 4.098978501696343e-1 4.150537304146036e-1 4.202744636493828e-1
      4.255608656241632e-1 4.309137623500069e-1 4.363339902279185e-1 4.418223961795325e-1
      4.473798377794434e-1 4.530071833892095e-1 4.587053122930296e-1 4.644751148351387e-1
      4.703174925589236e-1 4.762333583477884e-1 4.822236365678001e-1 4.882892632121164e-1
      4.944311860472417e-1 5.006503647611158e-1 5.069477711130641e-1 5.133243890856429e-1
      5.197812150383820e-1 5.263192578634741e-1 5.329395391434129e-1 5.396430933106160e-1
      5.464309678090622e-1 5.533042232579501e-1 5.602639336174281e-1 5.673111863564007e-1
      5.744470826224441e-1 5.816727374138699e-1 5.889892797539380e-1 5.963978528672756e-1
      6.038996143585057e-1 6.114957363931214e-1 6.191874058806476e-1 6.269758246600880e-1
      6.348622096877237e-1 6.428477932272615e-1 6.509338230423739e-1 6.591215625916728e-1
      6.674122912261190e-1 6.758073043889301e-1 6.843079138179937e-1 6.929154477508255e-1
      7.016312511321169e-1 7.104566858238765e-1 7.193931308182313e-1 7.284419824528944e-1
      7.376046546293412e-1 7.468825790337437e-1 7.562772053606629e-1 7.657900015395779e-1
      7.754224539642466e-1 7.851760677249551e-1 7.950523668437003e-1 8.050528945123098e-1
      8.151792133335796e-1 8.254329055654296e-1 8.358155733681286e-1 8.463288390546481e-1
      8.569743453441378e-1 8.677537556186152e-1 8.786687541828684e-1 8.897210465276267e-1
      9.009123595960578e-1 9.122444420535947e-1 9.237190645611783e-1 9.353380200519222e-1
      9.471031240112573e-1 9.590162147606176e-1 9.710791537446658e-1 9.832938258221628e-1
      9.956621395604730e-1 1.008186027533778e0 1.020867446625057e0 1.033708378331841e0
      1.046710829075835e0 1.059876830516424e0 1.073208439868115e0 1.086707740221997e0
      1.100376840871211e0 1.114217877640545e0 1.128233013220157e0 1.142424437503489e0
      1.156794367929465e0 1.171345049828943e0 1.186078756775578e0 1.200997790941057e0
      1.216104483454817e0 1.231401194768303e0 1.246890315023774e0 1.262574264427786e0
      1.278455493629344e0 1.294536484102818e0 1.310819748535690e0 1.327307831221152e0
      1.344003308455670e0 1.360908788941534e0 1.378026914194457e0 1.395360358956344e0
      1.412911831613197e0 1.430684074618332e0 1.448679864920877e0 1.466902014399676e0
      1.485353370302663e0 1.504036815691732e0 1.522955269893240e0 1.542111688954147e0
      1.561509066103901e0 1.581150432222153e0 1.601038856312311e0 1.621177445981107e0
      1.641569347924151e0 1.662217748417604e0 1.683125873816059e0 1.704296991056642e0
      1.725734408169495e0 1.747441474794663e0 1.769421582705461e0 1.791678166338476e0
      1.814214703330176e0 1.837034715060319e0 1.860141767202171e0 1.883539470279632e0
      1.907231480231418e0 1.931221498982280e0 1.955513275021459e0 1.980110603988385e0
      2.005017329265748e0 2.030237342580052e0 2.055774584609680e0 2.081633045600659e0
      2.107816765990132e0 2.134329837037674e0 2.161176401464585e0 2.188360654101169e0
      2.215886842542209e0 2.243759267810658e0 2.271982285029662e0 2.300560304103090e0
      2.329497790404556e0 2.358799265475173e0 2.388469307730039e0 2.418512553173612e0
      2.448933696124125e0 2.479737489947047e0 2.510928747797839e0 2.542512343374002e0
      2.574493211676595e0 2.606876349781364e0 2.639666817619513e0 2.672869738768358e0
      2.706490301251887e0 2.740533758351379e0 2.775005429426277e0 2.809910700745311e0
      2.845255026328145e0 2.881043928797562e0 2.917283000242379e0 2.953977903091247e0
      2.991134370997383e0 3.028758209734498e0 3.066855298103945e0 3.105431588853281e0
      3.144493109606431e0 3.184045963805472e0 3.224096331664349e0 3.264650471134530e0
      3.305714718882801e0 3.347295491281434e0 3.389399285410699e0 3.432032680074096e0
      3.475202336826285e0 3.518915001013952e0 3.563177502829821e0 3.607996758379842e0
      3.653379770763886e0 3.699333631169977e0 3.745865519982285e0 3.792982707903120e0
      3.840692557088941e0 3.889002522300757e0 3.937920152068925e0 3.987453089872609e0
      4.037609075334128e0 4.088395945428242e0 4.139821635706735e0 4.191894181538346e0
      4.244621719364290e0 4.298012487969642e0 4.352074829770607e0 4.406817192118088e0
      4.462248128617585e0 4.518376300465683e0 4.575210477803447e0 4.632759541086696e0
      4.691032482473664e0 4.750038407230006e0 4.809786535151497e0 4.870286202004702e0
      4.931546860985635e0 4.993578084196906e0 5.056389564143355e0 5.119991115246499e0
      5.184392675378112e0 5.249604307412970e0 5.315636200801266e0 5.382498673160693e0
      5.450202171888570e0 5.518757275794337e0 5.588174696752435e0 5.658465281376130e0
      5.729640012712288e0 5.801710011957465e0 5.874686540195691e0 5.948581000157956e0
      6.023404938003977e0 6.099170045126284e0 6.175888159976989e0 6.253571269917644e0
      6.332231513092203e0 6.411881180323706e0 6.492532717034721e0 6.574198725191920e0
      6.656891965275254e0 6.740625358271703e0 6.825411987694289e0 6.911265101626375e0
      6.998198114791654e0 7.086224610650327e0 7.175358343521439e0 7.265613240732105e0
      7.357003404793653e0 7.449543115605127e0 7.543246832684639e0 7.638129197428601e0
      7.734205035399556e0 7.831489358642668e0 7.929997368031343e0 8.029744455642492e0
      8.130746207161463e0 8.233018404317434e0 8.336577027349302e0 8.441438257502575e0
      8.547618479557837e0 8.655134284390780e0 8.764002471564666e0 8.874240051955251e0
      8.985864250408722e0 9.098892508433215e0 9.213342486923976e0 9.329232068923011e0
      9.446579362413303e0 9.565402703148168e0 9.685720657516379e0 9.807552025443066e0
      9.930915843327343e0 1.005583138701676e1 1.018231817481914e1 1.031039597055243e1
      1.044008478663277e1 1.057140488720154e1 1.070437679129164e1 1.083902127603358e1
      1.097535937990209e1 1.111341240600323e1 1.125320192540322e1 1.139474978049889e1
      1.153807808843054e1 1.168320924453793e1 1.183016592585943e1 1.197897109467551e1
      1.212964800209656e1 1.228222019169587e1 1.243671150318853e1 1.259314607615623e1
      1.275154835381929e1 1.291194308685587e1 1.307435533726931e1 1.323881048230420e1
      1.340533421841149e1 1.357395256526378e1 1.374469186982084e1 1.391757881044632e1
      1.409264040107649e1 1.426990399544101e1 1.444939729133716e1 1.463114833495763e1
      1.481518552527272e1 1.500153761846789e1 1.519023373243678e1 1.538130335133113e1
      1.557477633016767e1 1.577068289949289e1 1.596905367010689e1 1.616991963784610e1
      1.637331218842669e1 1.657926310234851e1 1.678780455986082e1 1.699896914599069e1
      1.721278985563426e1 1.742930009871247e1 1.764853370539131e1 1.787052493136782e1
      1.809530846322275e1 1.832291942384021e1 1.855339337789592e1 1.878676633741413e1
      1.902307476739450e1 1.926235559151006e1 1.950464619787632e1 1.974998444489351e1
      1.999840866716191e1 2.024995768147160e1 2.050467079286791e1 2.076258780079264e1
      2.102374900530306e1 2.128819521336875e1 2.155596774524766e1 2.182710844094276e1
      2.210165966673931e1 2.237966432182497e1 2.266116584499273e1 2.294620822142824e1
      2.323483598958280e1 2.352709424813234e1 2.382302866302439e1 2.412268547461341e1
      2.442611150488579e1 2.473335416477615e1 2.504446146157512e1 2.535948200643081e1
      2.567846502194432e1 2.600146034986070e1 2.632851845885718e1 2.665969045242859e1
      2.699502807687275e1 2.733458372937579e1 2.767841046619914e1 2.802656201097005e1
      2.837909276307559e1 2.873605780616309e1 2.909751291674681e1 2.946351457292307e1
      2.983411996319539e1 3.020938699540989e1 3.058937430580390e1 3.097414126816782e1
      3.136374800312221e1 3.175825538751218e1 3.215772506391907e1 3.256221945029260e1
      3.297180174970364e1 3.338653596021967e1 3.380648688490498e1 3.423172014194582e1
      3.466230217490382e1 3.509830026309771e1 3.553978253211570e1 3.598681796446064e1
      3.643947641032820e1 3.689782859852158e1 3.736194614750276e1 3.783190157658289e1
      3.830776831725403e1 3.878962072466243e1 3.927753408922715e1 3.977158464840415e1
      4.027184959859831e1 4.077840710722604e1 4.129133632492851e1 4.181071739793963e1
      4.233663148060883e1 4.286916074808132e1 4.340838840913878e1 4.395439871920013e1
      4.450727699348728e1 4.506710962035551e1 4.563398407479157e1 4.620798893208246e1
      4.678921388165480e1 4.737774974108954e1 4.797368847031218e1 4.857712318596146e1
      4.918814817593955e1 4.980685891414412e1 5.043335207538687e1 5.106772555049893e1