<UPF version="2.0.1">
  <PP_INFO>
Generated using "atomic" code by A. Dal Corso  v.6.2.2
Author: ADC
Generation date:  4May2018
Pseudopotential type: USPP
Element: Sb
Functional: PBE
    Suggested minimum cutoff for wavefunctions:  27. Ry
    Suggested minimum cutoff for charge density: 242. Ry
    The Pseudo was generated with a Fully-Relativistic Calculation
    Local Potential by smoothing AE potential with Bessel fncs, cutoff radius:   2.1000
    Pseudopotential contains additional information for spin-orbit calculations.
    Valence configuration:
    nl pn  l   occ       Rcut    Rcut US       E pseu
    5S  1  0  2.00      1.700      2.100    -0.929862
    5P  2  1  2.00      1.700      2.500    -0.376000
    5P  2  1  1.00      1.700      2.500    -0.331883
    Generation configuration:
    5S  1  0  2.00      1.700      2.100    -0.929859
    5S  1  0  0.00      1.700      2.100     6.300000
    5P  2  1  2.00      1.700      2.500    -0.376001
    5P  2  1  1.00      1.700      2.500    -0.331882
    5P  2  1  0.00      1.700      2.500     6.300000
    5P  2  1  0.00      1.700      2.500     6.300000
    5D  3  2  0.00      1.700      2.600     0.500000
    5D  3  2  0.00      1.700      2.600     0.500000
    5D  3  2  0.00      1.700      2.600     4.300000
    5D  3  2  0.00      1.700      2.600     4.300000
    Pseudization used: troullier-martins

    <PP_INPUTFILE>
 &amp;input
   title='Sb',
   zed=51.,
   rel=2,
   config='[Kr] 5s2 5p3 4d10 5d-1',
   iswitch=3,
   dft='PBE'
 /
 &amp;inputp
   lpaw=.false.,
   use_xsd=.FALSE.,
   pseudotype=3,
   file_pseudopw='Sb.rel-pbe-n-rrkjus_psl.1.0.0.UPF',
   author='ADC',
   lloc=-1,
   rcloc=2.1,
   which_augfun='PSQ',
   rmatch_augfun_nc=.true.,
   nlcc=.true.,
   new_core_ps=.true.,
   rcore=2.0,
   tm=.true.
 /
6
5S  1  0  2.00  0.00  1.70  2.10  0.0
5S  1  0  0.00  6.30  1.70  2.10  0.0
5P  2  1  3.00  0.00  1.70  2.50  0.0
5P  2  1  0.00  6.30  1.70  2.50  0.0
5D  3  2  0.00  0.50  1.70  2.60  0.0
5D  3  2  0.00  4.30  1.70  2.60  0.0
</PP_INPUTFILE>
  </PP_INFO>
  <!--
 END OF HUMAN READABLE SECTION 
-->
  <PP_HEADER generated="Generated using &quot;atomic&quot; code by A. Dal Corso  v.6.2.2" author="ADC" date=" 4May2018" comment="" element="Sb" pseudo_type="USPP" relativistic="full" is_ultrasoft="true" is_paw="false" is_coulomb="false" has_so="true" has_wfc="false" has_gipaw="false" paw_as_gipaw="false" core_correction="true" functional="PBE" z_valence="5.000000000000e0" total_psenergy="-1.965053663394e1" wfc_cutoff="2.675101116902e1" rho_cutoff="2.418799618773e2" l_max="2" l_max_rho="4" l_local="-1" mesh_size="1243" number_of_wfc="3" number_of_proj="10"/>
  <PP_MESH dx="1.250000000000e-2" mesh="1243" xmin="-7.000000000000e0" rmax="1.000000000000e2" zmesh="5.100000000000e1">
    <PP_R>
      1.788003854028464e-5 1.810494173860828e-5 1.833267387091338e-5 1.856327052080890e-5
      1.879676771949058e-5 1.903320195137076e-5 1.927261015977919e-5 1.951502975273551e-5
      1.976049860879432e-5 2.000905508296381e-5 2.026073801269876e-5 2.051558672396899e-5
      2.077364103740412e-5 2.103494127451562e-5 2.129952826399721e-5 2.156744334810428e-5
      2.183872838911379e-5 2.211342577586533e-5 2.239157843038446e-5 2.267322981458937e-5
      2.295842393708185e-5 2.324720536002378e-5 2.353961920610001e-5 2.383571116556892e-5
      2.413552750340159e-5 2.443911506651077e-5 2.474652129107087e-5 2.505779420992989e-5
      2.537298246011467e-5 2.569213529043059e-5 2.601530256915670e-5 2.634253479183778e-5
      2.667388308917439e-5 2.700939923501211e-5 2.734913565443136e-5 2.769314543193885e-5
      2.804148231976224e-5 2.839420074624893e-5 2.875135582437065e-5 2.911300336033504e-5
      2.947919986230534e-5 2.985000254923003e-5 3.022546935978334e-5 3.060565896141828e-5
      3.099063075953367e-5 3.138044490675617e-5 3.177516231233934e-5 3.217484465168090e-5
      3.257955437595949e-5 3.298935472189296e-5 3.340430972161911e-5 3.382448421270084e-5
      3.424994384825725e-5 3.468075510722197e-5 3.511698530473078e-5 3.555870260263951e-5
      3.600597602017465e-5 3.645887544471767e-5 3.691747164272505e-5 3.738183627078582e-5
      3.785204188681782e-5 3.832816196140524e-5 3.881027088927836e-5 3.929844400093802e-5
      3.979275757442616e-5 4.029328884724430e-5 4.080011602842215e-5 4.131331831073792e-5
      4.183297588309232e-5 4.235916994303834e-5 4.289198270946834e-5 4.343149743546110e-5
      4.397779842129025e-5 4.453097102759623e-5 4.509110168872423e-5 4.565827792622968e-5
      4.623258836255358e-5 4.681412273487007e-5 4.740297190910790e-5 4.799922789414868e-5
      4.860298385620311e-5 4.921433413336859e-5 4.983337425036977e-5 5.046020093348432e-5
      5.109491212565683e-5 5.173760700180239e-5 5.238838598430294e-5 5.304735075869856e-5
      5.371460428957585e-5 5.439025083665664e-5 5.507439597108848e-5 5.576714659194054e-5
      5.646861094290673e-5 5.717889862921898e-5 5.789812063477346e-5 5.862638933947178e-5
      5.936381853678069e-5 6.011052345151261e-5 6.086662075782959e-5 6.163222859747412e-5
      6.240746659822875e-5 6.319245589260837e-5 6.398731913678722e-5 6.479218052976437e-5
      6.560716583277003e-5 6.643240238891592e-5 6.726801914309283e-5 6.811414666211868e-5
      6.897091715513977e-5 6.983846449428882e-5 7.071692423560255e-5 7.160643364020282e-5
      7.250713169574377e-5 7.341915913812902e-5 7.434265847350209e-5 7.527777400051300e-5
      7.622465183286531e-5 7.718343992214674e-5 7.815428808094688e-5 7.913734800626584e-5
      8.013277330321699e-5 8.114071950902817e-5 8.216134411734471e-5 8.319480660283805e-5
      8.424126844612431e-5 8.530089315899547e-5 8.637384630996872e-5 8.746029555015689e-5
      8.856041063946405e-5 8.967436347311121e-5 9.080232810849504e-5 9.194448079238454e-5
      9.310099998846034e-5 9.427206640519971e-5 9.545786302411303e-5 9.665857512833435e-5
      9.787439033157288e-5 9.910549860742773e-5 1.003520923190716e-4 1.016143662493083e-4
      1.028925176310075e-4 1.041867461779231e-4 1.054972541158985e-4 1.068242462144652e-4
      1.081679298188387e-4 1.095285148823157e-4 1.109062139990806e-4 1.123012424374233e-4
      1.137138181733753e-4 1.151441619247696e-4 1.165924971857274e-4 1.180590502615796e-4
      1.195440503042282e-4 1.210477293479510e-4 1.225703223456580e-4 1.241120672056029e-4
      1.256732048285565e-4 1.272539791454488e-4 1.288546371554826e-4 1.304754289647289e-4
      1.321166078252052e-4 1.337784301744476e-4 1.354611556755790e-4 1.371650472578826e-4
      1.388903711578848e-4 1.406373969609549e-4 1.424063976434292e-4 1.441976496152635e-4
      1.460114327632223e-4 1.478480304946133e-4 1.497077297815679e-4 1.515908212058837e-4
      1.534975990044269e-4 1.554283611151077e-4 1.573834092234345e-4 1.593630488096512e-4
      1.613675891964712e-4 1.633973435974080e-4 1.654526291657163e-4 1.675337670439480e-4
      1.696410824141301e-4 1.717749045485770e-4 1.739355668613384e-4 1.761234069602964e-4
      1.783387666999181e-4 1.805819922346694e-4 1.828534340731045e-4 1.851534471326316e-4
      1.874823907949707e-4 1.898406289623077e-4 1.922285301141535e-4 1.946464673649218e-4
      1.970948185222271e-4 1.995739661459190e-4 2.020842976078579e-4 2.046262051524413e-4
      2.072000859578952e-4 2.098063421983319e-4 2.124453811065913e-4 2.151176150378723e-4
      2.178234615341629e-4 2.205633433894836e-4 2.233376887159486e-4 2.261469310106592e-4
      2.289915092234403e-4 2.318718678254239e-4 2.347884568785024e-4 2.377417321056490e-4
      2.407321549621262e-4 2.437601927075900e-4 2.468263184790980e-4 2.499310113650406e-4
      2.530747564799976e-4 2.562580450405388e-4 2.594813744419792e-4 2.627452483360947e-4
      2.660501767098222e-4 2.693966759649440e-4 2.727852689987768e-4 2.762164852858771e-4
      2.796908609607697e-4 2.832089389017231e-4 2.867712688155730e-4 2.903784073236157e-4
      2.940309180485827e-4 2.977293717027047e-4 3.014743461768909e-4 3.052664266310213e-4
      3.091062055853820e-4 3.129942830132475e-4 3.169312664346249e-4 3.209177710111848e-4
      3.249544196423776e-4 3.290418430627639e-4 3.331806799405702e-4 3.373715769774781e-4
      3.416151890096768e-4 3.459121791101797e-4 3.502632186924321e-4 3.546689876152218e-4
      3.591301742889055e-4 3.636474757829782e-4 3.682215979349884e-4 3.728532554608285e-4
      3.775431720664103e-4 3.822920805607450e-4 3.871007229704466e-4 3.919698506556752e-4
      3.969002244275371e-4 4.018926146669659e-4 4.069478014450929e-4 4.120665746451379e-4
      4.172497340858270e-4 4.224980896463681e-4 4.278124613929956e-4 4.331936797071068e-4
      4.386425854150118e-4 4.441600299193132e-4 4.497468753319398e-4 4.554039946088545e-4
      4.611322716864531e-4 4.669326016196838e-4 4.728058907218995e-4 4.787530567064713e-4
      4.847750288301843e-4 4.908727480384342e-4 4.970471671122539e-4 5.032992508171851e-4
      5.096299760540264e-4 5.160403320114765e-4 5.225313203206959e-4 5.291039552118136e-4
      5.357592636724032e-4 5.424982856079525e-4 5.493220740043495e-4 5.562316950924138e-4
      5.632282285144987e-4 5.703127674931857e-4 5.774864190021038e-4 5.847503039388964e-4
      5.921055573003629e-4 5.995533283598058e-4 6.070947808466059e-4 6.147310931280567e-4
      6.224634583934892e-4 6.302930848407073e-4 6.382211958647732e-4 6.462490302491641e-4
      6.543778423593349e-4 6.626089023387170e-4 6.709434963071772e-4 6.793829265619808e-4
      6.879285117812751e-4 6.965815872301365e-4 7.053435049692091e-4 7.142156340659653e-4
      7.231993608086276e-4 7.322960889227770e-4 7.415072397906880e-4 7.508342526734248e-4
      7.602785849357257e-4 7.698417122737220e-4 7.795251289455161e-4 7.893303480046638e-4
      7.992589015365926e-4 8.093123408979912e-4 8.194922369592140e-4 8.298001803497318e-4
      8.402377817066704e-4 8.508066719264779e-4 8.615085024197533e-4 8.723449453692849e-4
      8.833176939913299e-4 8.944284628001842e-4 9.056789878760808e-4 9.170710271364507e-4
      9.286063606106065e-4 9.402867907178718e-4 9.521141425492152e-4 9.640902641524232e-4
      9.762170268208616e-4 9.884963253858702e-4 1.000930078512831e-3 1.013520229000969e-3
      1.026268744086909e-3 1.039177615752075e-3 1.052248861033924e-3 1.065484522341127e-3
      1.078886667772691e-3 1.092457391441106e-3 1.106198813799556e-3 1.120113081973241e-3
      1.134202370094872e-3 1.148468879644383e-3 1.162914839792916e-3 1.177542507751136e-3
      1.192354169121921e-3 1.207352138257495e-3 1.222538758621048e-3 1.237916403152910e-3
      1.253487474641325e-3 1.269254406097893e-3 1.285219661137732e-3 1.301385734364424e-3
      1.317755151759799e-3 1.334330471078631e-3 1.351114282248286e-3 1.368109207773405e-3
      1.385317903145679e-3 1.402743057258769e-3 1.420387392828460e-3 1.438253666818081e-3
      1.456344670869292e-3 1.474663231738283e-3 1.493212211737458e-3 1.511994509182681e-3
      1.531013058846141e-3 1.550270832414915e-3 1.569770838955306e-3 1.589516125383005e-3
      1.609509776939192e-3 1.629754917672599e-3 1.650254710927654e-3 1.671012359838762e-3
      1.692031107830794e-3 1.713314239125890e-3 1.734865079256614e-3 1.756686995585583e-3
      1.778783397831619e-3 1.801157738602527e-3 1.823813513934578e-3 1.846754263838759e-3
      1.869983572853915e-3 1.893505070606840e-3 1.917322432379413e-3 1.941439379682869e-3
      1.965859680839289e-3 1.990587151570414e-3 2.015625655593852e-3 2.040979105226797e-3
      2.066651461997340e-3 2.092646737263455e-3 2.118968992839791e-3 2.145622341632333e-3
      2.172610948281058e-3 2.199939029810662e-3 2.227610856289485e-3 2.255630751496715e-3
      2.284003093597980e-3 2.312732315829463e-3 2.341822907190581e-3 2.371279413145426e-3
      2.401106436332979e-3 2.431308637286300e-3 2.461890735160732e-3 2.492857508471285e-3
      2.524213795839299e-3 2.555964496748464e-3 2.588114572310398e-3 2.620669046039814e-3
      2.653633004639465e-3 2.687011598794951e-3 2.720810043979515e-3 2.755033621268984e-3
      2.789687678166935e-3 2.824777629440261e-3 2.860308957965243e-3 2.896287215584252e-3
      2.932718023973237e-3 2.969607075520131e-3 3.006960134214284e-3 3.044783036547118e-3
      3.083081692424072e-3 3.121862086088046e-3 3.161130277054448e-3 3.200892401058008e-3
      3.241154671011501e-3 3.281923377976521e-3 3.323204892146474e-3 3.365005663841938e-3
      3.407332224518532e-3 3.450191187787481e-3 3.493589250448990e-3 3.537533193538644e-3
      3.582029883386956e-3 3.627086272692241e-3 3.672709401607002e-3 3.718906398837948e-3
      3.765684482759887e-3 3.813050962543602e-3 3.861013239297923e-3 3.909578807226179e-3
      3.958755254797167e-3 4.008550265930866e-3 4.058971621199074e-3 4.110027199041133e-3
      4.161724976994963e-3 4.214073032943543e-3 4.267079546377117e-3 4.320752799671254e-3
      4.375101179380978e-3 4.430133177551193e-3 4.485857393043579e-3 4.542282532880176e-3
      4.599417413603879e-3 4.657270962656042e-3 4.715852219771415e-3 4.775170338390604e-3
      4.835234587090325e-3 4.896054351031641e-3 4.957639133426401e-3 5.019998557022158e-3
      5.083142365605717e-3 5.147080425525635e-3 5.211822727233859e-3 5.277379386846743e-3
      5.343760647725738e-3 5.410976882077906e-3 5.479038592576617e-3 5.547956414002609e-3
      5.617741114905687e-3 5.688403599287359e-3 5.759954908304568e-3 5.832406221994917e-3
      5.905768861023574e-3 5.980054288452143e-3 6.055274111529803e-3 6.131440083506938e-3
      6.208564105471634e-3 6.286658228209232e-3 6.365734654085289e-3 6.445805738952238e-3
      6.526883994079993e-3 6.608982088110871e-3 6.692112849039096e-3 6.776289266215186e-3
      6.861524492375597e-3 6.947831845697820e-3 7.035224811881408e-3 7.123717046255128e-3
      7.213322375910634e-3 7.304054801863000e-3 7.395928501238373e-3 7.488957829489198e-3
      7.583157322637284e-3 7.678541699545079e-3 7.775125864215548e-3 7.872924908120916e-3
      7.971954112560771e-3 8.072228951049780e-3 8.173765091735458e-3 8.276578399846384e-3
      8.380684940171113e-3 8.486100979568382e-3 8.592842989508814e-3 8.700927648648625e-3
      8.810371845435718e-3 8.921192680748502e-3 9.033407470567962e-3 9.147033748683308e-3
      9.262089269431662e-3 9.378592010472239e-3 9.496560175595345e-3 9.616012197566791e-3
      9.736966741008036e-3 9.859442705312567e-3 9.983459227599003e-3 1.010903568570126e-2
      1.023619170119640e-2 1.036494714247054e-2 1.049532212782334e-2 1.062733702861151e-2
      1.076101247243189e-2 1.089636934634454e-2 1.103342880013639e-2 1.117221224962594e-2
      1.131274138000955e-2 1.145503814924973e-2 1.159912479150618e-2 1.174502382060992e-2
      1.189275803358105e-2 1.204235051419094e-2 1.219382463656902e-2 1.234720406885510e-2
      1.250251277689753e-2 1.265977502799788e-2 1.281901539470289e-2 1.298025875864381e-2
      1.314353031442431e-2 1.330885557355715e-2 1.347626036845043e-2 1.364577085644396e-2
      1.381741352389635e-2 1.399121519032358e-2 1.416720301258966e-2 1.434540448914984e-2
      1.452584746434741e-2 1.470856013276436e-2 1.489357104362684e-2 1.508090910526610e-2
      1.527060358963539e-2 1.546268413688386e-2 1.565718075998779e-2 1.585412384944025e-2
      1.605354417799966e-2 1.625547290549805e-2 1.645994158370995e-2 1.666698216128232e-2
      1.687662698872663e-2 1.708890882347369e-2 1.730386083499207e-2 1.752151660997090e-2
      1.774191015756784e-2 1.796507591472310e-2 1.819104875154027e-2 1.841986397673482e-2
      1.865155734315126e-2 1.888616505334945e-2 1.912372376526143e-2 1.936427059791926e-2
      1.960784313725490e-2 1.985447944197322e-2 2.010421804949861e-2 2.035709798199658e-2
      2.061315875247108e-2 2.087244037093842e-2 2.113498335067905e-2 2.140082871456769e-2
      2.167001800148330e-2 2.194259327279963e-2 2.221859711895738e-2 2.249807266611906e-2
      2.278106358290752e-2 2.306761408722924e-2 2.335776895318351e-2 2.365157351805845e-2
      2.394907368941510e-2 2.425031595226049e-2 2.455534737631107e-2 2.486421562334746e-2
      2.517696895466160e-2 2.549365623859787e-2 2.581432695818867e-2 2.613903121888634e-2
      2.646781975639223e-2 2.680074394458424e-2 2.713785580354415e-2 2.747920800768576e-2
      2.782485389398545e-2 2.817484747031618e-2 2.852924342388630e-2 2.888809712978462e-2
      2.925146465963276e-2 2.961940279034654e-2 2.999196901300744e-2 3.036922154184574e-2
      3.075121932333665e-2 3.113802204541067e-2 3.152969014678006e-2 3.192628482638257e-2
      3.232786805294369e-2 3.273450257465966e-2 3.314625192900180e-2 3.356318045264442e-2
      3.398535329151758e-2 3.441283641098625e-2 3.484569660615762e-2 3.528400151231783e-2
      3.572781961550020e-2 3.617722026318630e-2 3.663227367514161e-2 3.709305095438765e-2
      3.755962409831171e-2 3.803206600991676e-2 3.851045050921271e-2 3.899485234475082e-2
      3.948534720530347e-2 3.998201173169051e-2 4.048492352875465e-2 4.099416117748739e-2
      4.150980424730735e-2 4.203193330849333e-2 4.256062994477340e-2 4.309597676607261e-2
      4.363805742142095e-2 4.418695661202370e-2 4.474276010449616e-2 4.530555474426480e-2
      4.587542846913710e-2 4.645247032304198e-2 4.703677046994309e-2 4.762842020792723e-2
      4.822751198346961e-2 4.883413940587906e-2 4.944839726192450e-2 5.007038153064562e-2
      5.070018939834993e-2 5.133791927379807e-2 5.198367080358056e-2 5.263754488768768e-2
      5.329964369527539e-2 5.397007068062956e-2 5.464893059933043e-2 5.533632952462155e-2
      5.603237486398365e-2 5.673717537591688e-2 5.745084118693539e-2 5.817348380877389e-2
      5.890521615581239e-2 5.964615256271895e-2 6.039640880231433e-2 6.115610210366265e-2
      6.192535117038762e-2 6.270427619922105e-2 6.349299889878358e-2 6.429164250860144e-2
      6.510033181836374e-2 6.591919318742021e-2 6.674835456452584e-2 6.758794550783288e-2
      6.843809720513415e-2 6.929894249436222e-2 7.017061588434471e-2 7.105325357582237e-2
      7.194699348273033e-2 7.285197525374715e-2 7.376834029411596e-2 7.469623178773849e-2
      7.563579471954850e-2 7.658717589816578e-2 7.755052397883484e-2 7.852598948665351e-2
      7.951372484009167e-2 8.051388437480806e-2 8.152662436776490e-2 8.255210306164628e-2
      8.359048068958474e-2 8.464191950019696e-2 8.570658378293640e-2 8.678463989376347e-2
      8.787625628113851e-2 8.898160351234329e-2 9.010085430013117e-2 9.123418352971507e-2
      9.238176828609303e-2 9.354378788171770e-2 9.472042388451538e-2 9.591186014625503e-2
      9.711828283127673e-2 9.833988044557966e-2 9.957684386627610e-2 1.008293663714175e-1
      1.020976436701931e-1 1.033818739335115e-1 1.046822578249643e-1 1.059989985321797e-1
      1.073323017985726e-1 1.086823759554907e-1 1.100494319547678e-1 1.114336834016852e-1
      1.128353465883477e-1 1.142546405274800e-1 1.156917869866474e-1 1.171470105229083e-1
      1.186205385179010e-1 1.201126012133723e-1 1.216234317471543e-1 1.231532661895915e-1
      1.247023435804280e-1 1.262709059661581e-1 1.278591984378453e-1 1.294674691694203e-1
      1.310959694564563e-1 1.327449537554367e-1 1.344146797235134e-1 1.361054082587654e-1
      1.378174035409667e-1 1.395509330728627e-1 1.413062677219699e-1 1.430836817628988e-1
      1.448834529202088e-1 1.467058624118056e-1 1.485511949928794e-1 1.504197390004005e-1
      1.523117863981721e-1 1.542276328224489e-1 1.561675776281329e-1 1.581319239355466e-1
      1.601209786777970e-1 1.621350526487348e-1 1.641744605515150e-1 1.662395210477722e-1
      1.683305568074098e-1 1.704478945590196e-1 1.725918651409336e-1 1.747628035529164e-1
      1.769610490085123e-1 1.791869449880456e-1 1.814408392922920e-1 1.837230840968223e-1
      1.860340360070299e-1 1.883740561138532e-1 1.907435100501939e-1 1.931427680480506e-1
      1.955722049963672e-1 1.980322004996089e-1 2.005231389370786e-1 2.030454095229744e-1
      2.055994063672073e-1 2.081855285369806e-1 2.108041801191442e-1 2.134557702833362e-1
      2.161407133459138e-1 2.188594288346934e-1 2.216123415545018e-1 2.243998816535514e-1
      2.272224846906549e-1 2.300805917032787e-1 2.329746492764587e-1 2.359051096125792e-1
      2.388724306020289e-1 2.418770758947503e-1 2.449195149726826e-1 2.480002232231220e-1
      2.511196820130008e-1 2.542783787641007e-1 2.574768070292163e-1 2.607154665692704e-1
      2.639948634314060e-1 2.673155100280542e-1 2.706779252170018e-1 2.740826343824637e-1
      2.775301695171727e-1 2.810210693055088e-1 2.845558792076652e-1 2.881351515448812e-1
      2.917594455857422e-1 2.954293276335646e-1 2.991453711148859e-1 3.029081566690594e-1
      3.067182722389838e-1 3.105763131629693e-1 3.144828822677583e-1 3.184385899627226e-1
      3.224440543352365e-1 3.264999012472576e-1 3.306067644331186e-1 3.347652855985463e-1
      3.389761145209346e-1 3.432399091508684e-1 3.475573357149341e-1 3.519290688198168e-1
      3.563557915577072e-1 3.608381956130406e-1 3.653769813705690e-1 3.699728580248016e-1
      3.746265436908170e-1 3.793387655164671e-1 3.841102597960004e-1 3.889417720851045e-1
      3.938340573174052e-1 3.987878799224241e-1 4.038040139450203e-1 4.088832431663418e-1
      4.140263612262868e-1 4.192341717475165e-1 4.245074884610211e-1 4.298471353332642e-1
      4.352539466949346e-1 4.407287673713064e-1 4.462724528142496e-1 4.518858692358942e-1
      4.575698937439750e-1 4.633254144788872e-1 4.691533307524540e-1 4.750545531884506e-1
      4.810300038648897e-1 4.870806164580950e-1 4.932073363885960e-1 4.994111209688450e-1
      5.056929395528051e-1 5.120537736874117e-1 5.184946172659373e-1 5.250164766832972e-1
      5.316203709932923e-1 5.383073320678450e-1 5.450784047582292e-1 5.519346470583265e-1
      5.588771302699475e-1 5.659069391702164e-1 5.730251721810772e-1 5.802329415409212e-1
      5.875313734783730e-1 5.949216083882738e-1 6.024048010098615e-1 6.099821206072090e-1
      6.176547511519209e-1 6.254238915081275e-1 6.332907556198180e-1 6.412565727005131e-1
      6.493225874253394e-1 6.574900601255091e-1 6.657602669852462e-1 6.741345002412007e-1
      6.826140683843539e-1 6.912002963644813e-1 6.998945257971747e-1 7.086981151734691e-1
      7.176124400721184e-1 7.266388933745215e-1 7.357788854823725e-1 7.450338445380353e-1
      7.544052166476890e-1 7.638944661072945e-1 7.735030756313833e-1 7.832325465847438e-1
      7.930843992170086e-1 8.030601729001921e-1 8.131614263692315e-1 8.233897379655296e-1
      8.337467058835839e-1 8.442339484207050e-1 8.548531042298727e-1 8.656058325757900e-1
      8.764938135941344e-1 8.875187485540936e-1 8.986823601241866e-1 9.099863926414308e-1
      9.214326123839088e-1 9.330228078467393e-1 9.447587900215455e-1 9.566423926794210e-1
      9.686754726574547e-1 9.808599101488786e-1 9.931976089968366e-1 1.005690496991877e0
      1.018340526173166e0 1.031149673133499e0 1.044119939328151e0 1.057253351387599e0
      1.070551961434201e0 1.084017847402833e0 1.097653113365572e0 1.111459889860468e0
      1.125440334224436e0 1.139596630930353e0 1.153930991928382e0 1.168445656991588e0
      1.183142894065923e0 1.198024999624576e0 1.213094299026821e0 1.228353146881351e0
      1.243803927414183e0 1.259449054841215e0 1.275290973745432e0 1.291332159458896e0
      1.307575118449514e0 1.324022388712669e0 1.340676540167808e0 1.357540175059973e0
      1.374615928366429e0 1.391906468208371e0 1.409414496267825e0 1.427142748209799e0
      1.445093994109723e0 1.463271038886292e0 1.481676722739739e0 1.500313921595606e0
      1.519185547554137e0 1.538294549345277e0 1.557643912789438e0 1.577236661264026e0
      1.597075856175846e0 1.617164597439473e0 1.637506023961593e0 1.658103314131490e0
      1.678959686317660e0 1.700078399370684e0 1.721462753132450e0 1.743116088951732e0
      1.765041790206310e0 1.787243282831617e0 1.809724035856037e0 1.832487561942975e0
      1.855537417939689e0 1.878877205433076e0 1.902510571312421e0 1.926441208339217e0
      1.950672855724195e0 1.975209299711551e0 2.000054374170582e0 2.025211961194723e0
      2.050685991708122e0 2.076480446079883e0 2.102599354745972e0 2.129046798839012e0
      2.155826910825954e0 2.182943875153772e0 2.210401928903320e0 2.238205362451354e0
      2.266358520140935e0 2.294865800960233e0 2.323731659229869e0 2.352960605298933e0
      2.382557206249705e0 2.412526086611305e0 2.442871929082264e0 2.473599475262199e0
      2.504713526392726e0 2.536218944107627e0 2.568120651192522e0 2.600423632354051e0
      2.633132934998736e0 2.666253670021669e0 2.699791012605073e0 2.733750203026964e0
      2.768136547479941e0 2.802955418900274e0 2.838212257807473e0 2.873912573154337e0
      2.910061943187777e0 2.946666016320412e0 2.983730512013130e0 3.021261221668803e0
      3.059264009537159e0 3.097744813631127e0 3.136709646654641e0 3.176164596942125e0
      3.216115829409843e0 3.256569586519139e0 3.297532189251871e0 3.339010038098062e0
      3.381009614055968e0 3.423537479644793e0 3.466600279930049e0 3.510204743561895e0
      3.554357683826498e0 3.599065999710588e0 3.644336676979496e0 3.690176789268637e0
      3.736593499188823e0 3.783594059445424e0 3.831185813971587e0 3.879376199075799e0
      3.928172744603761e0 3.977583075114998e0 4.027614911074184e0 4.078276070057464e0
      4.129574467974015e0 4.181518120302863e0 4.234115143345375e0 4.287373755493415e0
      4.341302278513474e0 4.395909138847006e0 4.451202868927021e0 4.507192108511349e0
      4.563885606032594e0 4.621292219965071e0 4.679420920209017e0 4.738280789492094e0
      4.797881024788635e0 4.858230938756674e0 4.919339961193031e0 4.981217640506809e0
      5.043873645211274e0 5.107317765434643e0 5.171559914449789e0 5.236610130223180e0
      5.302478576983393e0 5.369175546809227e0 5.436711461237921e0 5.505096872893520e0
      5.574342467135705e0 5.644459063729476e0 5.715457618535688e0 5.787349225222985e0
      5.860145117001187e0 5.933856668376468e0 6.008495396928717e0 6.084072965111107e0
      6.160601182072435e0 6.238092005502315e0 6.316557543499540e0 6.396010056464084e0
      6.476461959012724e0 6.557925821918922e0 6.640414374077011e0 6.723940504491067e0
      6.808517264288922e0 6.894157868761349e0 6.980875699427043e0 7.068684306123484e0
      7.157597409124097e0 7.247628901282142e0 7.338792850201415e0 7.431103500434422e0
      7.524575275708084e0 7.619222781177427e0 7.715060805707773e0 7.812104324185410e0
      7.910368499857551e0 8.009868686701580e0 8.110620431824094e0 8.212639477890281e0
      8.315941765583618e0 8.420543436096743e0 8.526460833653502e0 8.633710508062723e0
      8.742309217304266e0 8.852273930147362e0 8.963621828802136e0 9.076370311604306e0
      9.190536995733666e0 9.306139719966920e0 9.423196547464890e0 9.541725768595043e0
      9.661745903789349e0 9.783275706438078e0 9.906334165820185e0 1.003094051007028e1
      1.015711420918318e1 1.028487497805609e1 1.041424277956904e1 1.054523782770426e1
      1.067788059070450e1 1.081219179427135e1 1.094819242480365e1 1.108590373267657e1
      1.122534723556219e1 1.136654472179150e1 1.150951825375900e1 1.165429017136997e1
      1.180088309553103e1 1.194931993168487e1 1.209962387338909e1 1.225181840594041e1
      1.240592731004420e1 1.256197466553021e1 1.271998485511528e1 1.287998256821294e1
      1.304199280479141e1 1.320604087927979e1 1.337215242452344e1 1.354035339578930e1
      1.371067007482129e1 1.388312907394705e1 1.405775734023608e1 1.423458215971023e1
      1.441363116160733e1 1.459493232269818e1 1.477851397165806e1 1.496440479349317e1
      1.515263383402255e1 1.534323050441679e1 1.553622458579337e1 1.573164623387018e1
      1.592952598367734e1 1.612989475432828e1 1.633278385385115e1 1.653822498408046e1
      1.674625024561081e1 1.695689214281258e1 1.717018358891070e1 1.738615791112763e1
      1.760484885589056e1 1.782629059410456e1 1.805051772649178e1 1.827756528899781e1
      1.850746875826627e1 1.874026405718191e1 1.897598756048385e1 1.921467610044910e1
      1.945636697264757e1 1.970109794176984e1 1.994890724752767e1 2.019983361062929e1
      2.045391623882949e1 2.071119483305579e1 2.097170959361204e1 2.123550122645953e1
      2.150261094957763e1 2.177308049940402e1 2.204695213735609e1 2.232426865643453e1
      2.260507338790958e1 2.288941020809186e1 2.317732354518808e1 2.346885838624281e1
      2.376406028416820e1 2.406297536486131e1 2.436565033441168e1 2.467213248639915e1
      2.498246970928341e1 2.529671049388703e1 2.561490394097182e1 2.593709976891132e1
      2.626334832145920e1 2.659370057561546e1 2.692820814959200e1 2.726692331087775e1
      2.760989898440580e1 2.795718876082299e1 2.830884690486335e1 2.866492836382744e1
      2.902548877616758e1 2.939058448018180e1 2.976027252281673e1 3.013461066858103e1
      3.051365740857169e1 3.089747196961291e1 3.128611432351077e1 3.167964519642383e1
      3.207812607835151e1 3.248161923274246e1 3.289018770622282e1 3.330389533844789e1
      3.372280677207694e1 3.414698746287367e1 3.457650368993411e1 3.501142256604249e1
      3.545181204815810e1 3.589774094803357e1 3.634927894296664e1 3.680649658668779e1
      3.726946532038394e1 3.773825748386171e1 3.821294632685049e1 3.869360602044761e1
      3.918031166870825e1 3.967313932038002e1 4.017216598078623e1 4.067746962385791e1
      4.118912920431721e1 4.170722467001468e1 4.223183697442079e1 4.276304808927548e1
      4.330094101739630e1 4.384559980564745e1 4.439710955807288e1 4.495555644919331e1
      4.552102773747170e1 4.609361177894741e1 4.667339804104169e1 4.726047711653772e1
      4.785494073773530e1 4.845688179078482e1 4.906639433020050e1 4.968357359355655e1
      5.030851601636869e1 5.094131924716178e1 5.158208216272815e1 5.223090488357710e1
      5.288788878957863e1 5.355313653580486e1 5.422675206856942e1 5.490884064166988e1
      5.559950883283360e1 5.629886456037042e1 5.700701710003585e1 5.772407710210471e1
      5.845015660866134e1 5.918536907110595e1 5.992982936788136e1 6.068365382242382e1
      6.144696022133775e1 6.221986783280110e1 6.300249742520073e1 6.379497128600252e1
      6.459741324085972e1 6.540994867296018e1 6.623270454261834e1 6.706580940711288e1
      6.790939344077363e1 6.876358845532235e1 6.962852792046769e1 7.050434698476096e1
      7.139118249671291e1 7.228917302617635e1 7.319845888599872e1 7.411918215394532e1
      7.505148669490012e1 7.599551818334458e1 7.695142412611912e1 7.791935388547239e1