<UPF version="2.0.1">
  <PP_INFO>
Generated using "atomic" code by A. Dal Corso  v.6.3
Author: ADC
Generation date:  4Sep2018
Pseudopotential type: USPP
Element: Te
Functional: PBE
    Suggested minimum cutoff for wavefunctions:  32. Ry
    Suggested minimum cutoff for charge density: 157. Ry
    The Pseudo was generated with a Fully-Relativistic Calculation
    Local Potential by smoothing AE potential with Bessel fncs, cutoff radius:   2.1000
    Pseudopotential contains additional information for spin-orbit calculations.
    Valence configuration:
    nl pn  l   occ       Rcut    Rcut US       E pseu
    5S  1  0  2.00      1.700      2.100    -1.100778
    5P  2  1  2.00      1.600      2.300    -0.470998
    5P  2  1  2.00      1.600      2.300    -0.413177
    Generation configuration:
    5S  1  0  2.00      1.700      2.100    -1.100775
    5S  1  0  0.00      1.700      2.100     6.300000
    5P  2  1  2.00      1.600      2.300    -0.470999
    5P  2  1  2.00      1.600      2.300    -0.413175
    5P  2  1  0.00      1.600      2.300     6.300000
    5P  2  1  0.00      1.600      2.300     6.300000
    5D  3  2  0.00      1.600      2.400     0.500000
    5D  3  2  0.00      1.600      2.400     0.500000
    5D  3  2  0.00      1.600      2.400     4.300000
    5D  3  2  0.00      1.600      2.400     4.300000
    Pseudization used: troullier-martins

    <PP_INPUTFILE>
 &amp;input
   title='Te',
   zed=52.,
   rel=2,
   config='[Kr] 5s2 5p4 4d10 5d-1',
   iswitch=3,
   dft='PBE'
 /
 &amp;inputp
   lpaw=.false.,
   use_xsd=.FALSE.,
   pseudotype=3,
   file_pseudopw='Te.rel-pbe-n-rrkjus_psl.1.0.0.UPF',
   author='ADC',
   lloc=-1,
   rcloc=2.1,
   which_augfun='PSQ',
   rmatch_augfun_nc=.true.,
   nlcc=.true.,
   new_core_ps=.true.,
   rcore=1.8,
   tm=.true.
 /
6
5S  1  0  2.00  0.00  1.70  2.10  0.0
5S  1  0  0.00  6.30  1.70  2.10  0.0
5P  2  1  4.00  0.00  1.60  2.30  0.0
5P  2  1  0.00  6.30  1.60  2.30  0.0
5D  3  2  0.00  0.50  1.60  2.40  0.0
5D  3  2  0.00  4.30  1.60  2.40  0.0
</PP_INPUTFILE>
  </PP_INFO>
  <!--
 END OF HUMAN READABLE SECTION 
-->
  <PP_HEADER generated="Generated using &quot;atomic&quot; code by A. Dal Corso  v.6.3" author="ADC" date=" 4Sep2018" comment="" element="Te" pseudo_type="USPP" relativistic="full" is_ultrasoft="true" is_paw="false" is_coulomb="false" has_so="true" has_wfc="false" has_gipaw="false" paw_as_gipaw="false" core_correction="true" functional="PBE" z_valence="6.000000000000e0" total_psenergy="-2.835415533671e1" wfc_cutoff="3.203446804498e1" rho_cutoff="1.567124731227e2" l_max="2" l_max_rho="4" l_local="-1" mesh_size="1245" number_of_wfc="3" number_of_proj="10"/>
  <PP_MESH dx="1.250000000000e-2" mesh="1245" xmin="-7.000000000000e0" rmax="1.000000000000e2" zmesh="5.200000000000e1">
    <PP_R>
      1.753619164527916e-5 1.775676978209658e-5 1.798012245031889e-5 1.820628454925488e-5
      1.843529141719269e-5 1.866717883692132e-5 1.890198304132189e-5 1.913974071902906e-5
      1.938048902016366e-5 1.962426556213759e-5 1.987110843553148e-5 2.012105621004651e-5
      2.037414794053097e-5 2.063042317308263e-5 2.088992195122804e-5 2.115268482217920e-5
      2.141875284316929e-5 2.168816758786793e-5 2.196097115287706e-5 2.223720616430880e-5
      2.251691578444566e-5 2.280014371848486e-5 2.308693422136732e-5 2.337733210469259e-5
      2.367138274372079e-5 2.396913208446249e-5 2.427062665085797e-5 2.457591355204662e-5
      2.488504048972785e-5 2.519805576561462e-5 2.551500828898061e-5 2.583594758430244e-5
      2.616092379899796e-5 2.648998771126187e-5 2.682319073799997e-5 2.716058494286311e-5
      2.750222304438220e-5 2.784815842420568e-5 2.819844513544044e-5 2.855313791109782e-5
      2.891229217264562e-5 2.927596403866791e-5 2.964421033363365e-5 3.001708859677562e-5
      3.039465709108109e-5 3.077697481239547e-5 3.116410149864052e-5 3.155609763914858e-5
      3.195302448411411e-5 3.235494405416425e-5 3.276191915004950e-5 3.317401336245659e-5
      3.359129108194461e-5 3.401381750900617e-5 3.444165866425519e-5 3.487488139874260e-5
      3.531355340440206e-5 3.575774322462694e-5 3.620752026498034e-5 3.666295480403993e-5
      3.712411800437903e-5 3.759108192368590e-5 3.806391952602301e-5 3.854270469322767e-5
      3.902751223645642e-5 3.951841790787421e-5 4.001549841249094e-5 4.051883142014681e-5
      4.102849557764824e-5 4.154457052105682e-5 4.206713688813241e-5 4.259627633093302e-5
      4.313207152857314e-5 4.367460620014244e-5 4.422396511778723e-5 4.478023411995603e-5
      4.534350012481217e-5 4.591385114381486e-5 4.649137629547122e-5 4.707616581926121e-5
      4.766831108973766e-5 4.826790463080382e-5 4.887504013017034e-5 4.948981245399423e-5
      5.011231766170189e-5 5.074265302099850e-5 5.138091702306635e-5 5.202720939795435e-5
      5.268163113016094e-5 5.334428447441324e-5 5.401527297164447e-5 5.469470146517246e-5
      5.538267611708160e-5 5.607930442481091e-5 5.678469523795090e-5 5.749895877525116e-5
      5.822220664184259e-5 5.895455184667583e-5 5.969610882017902e-5 6.044699343213809e-5
      6.120732300980130e-5 6.197721635621205e-5 6.275679376877208e-5 6.354617705803811e-5
      6.434548956675523e-5 6.515485618912907e-5 6.597440339034105e-5 6.680425922630873e-5
      6.764455336369478e-5 6.849541710016788e-5 6.935698338491790e-5 7.022938683942968e-5
      7.111276377851793e-5 7.200725223162654e-5 7.291299196439631e-5 7.383012450050314e-5
      7.475879314377174e-5 7.569914300056699e-5 7.665132100246713e-5 7.761547592922229e-5
      7.859175843200127e-5 7.958032105693147e-5 8.058131826893421e-5 8.159490647586038e-5
      8.262124405292962e-5 8.366049136747634e-5 8.471281080400781e-5 8.577836678957695e-5
      8.685732581947436e-5 8.794985648324371e-5 8.905612949102395e-5 9.017631770022328e-5
      9.131059614252843e-5 9.245914205125359e-5 9.362213488903391e-5 9.479975637586637e-5
      9.599219051750417e-5 9.719962363420795e-5 9.842224438985868e-5 9.966024382143702e-5
      1.009138153688728e-4 1.021831549052707e-4 1.034684607675158e-4 1.047699337872639e-4
      1.060877773223225e-4 1.074221972884250e-4 1.087734021914059e-4 1.101416031597805e-4
      1.115270139777335e-4 1.129298511185241e-4 1.143503337783095e-4 1.157886839103954e-4
      1.172451262599161e-4 1.187198883989520e-4 1.202132007620877e-4 1.217252966824182e-4
      1.232564124280073e-4 1.248067872388055e-4 1.263766633640310e-4 1.279662861000226e-4
      1.295759038285667e-4 1.312057680557082e-4 1.328561334510487e-4 1.345272578875387e-4
      1.362194024817716e-4 1.379328316347826e-4 1.396678130733633e-4 1.414246178918930e-4
      1.432035205946988e-4 1.450047991389476e-4 1.468287349780762e-4 1.486756131057706e-4
      1.505457221004957e-4 1.524393541705864e-4 1.543568051999070e-4 1.562983747940810e-4
      1.582643663273083e-4 1.602550869897655e-4 1.622708478356063e-4 1.643119638315644e-4
      1.663787539061661e-4 1.684715409995659e-4 1.705906521140050e-4 1.727364183649061e-4
      1.749091750326120e-4 1.771092616147719e-4 1.793370218793909e-4 1.815928039185425e-4
      1.838769602027597e-4 1.861898476361095e-4 1.885318276119582e-4 1.909032660694426e-4
      1.933045335506458e-4 1.957360052584974e-4 1.981980611153990e-4 2.006910858225866e-4
      2.032154689202434e-4 2.057716048483640e-4 2.083598930083875e-4 2.109807378256055e-4
      2.136345488123520e-4 2.163217406319935e-4 2.190427331637188e-4 2.217979515681465e-4
      2.245878263537588e-4 2.274127934441657e-4 2.302732942462235e-4 2.331697757190019e-4
      2.361026904436238e-4 2.390724966939826e-4 2.420796585083461e-4 2.451246457618667e-4
      2.482079342399975e-4 2.513300057128361e-4 2.544913480104027e-4 2.576924550988621e-4
      2.609338271577102e-4 2.642159706579259e-4 2.675393984411081e-4 2.709046297996103e-4
      2.743121905576780e-4 2.777626131536130e-4 2.812564367229658e-4 2.847942071827769e-4
      2.883764773168791e-4 2.920038068622682e-4 2.956767625965660e-4 2.993959184265787e-4
      3.031618554779709e-4 3.069751621860697e-4 3.108364343878053e-4 3.147462754148159e-4
      3.187052961877165e-4 3.227141153115569e-4 3.267733591724824e-4 3.308836620356035e-4
      3.350456661441060e-4 3.392600218195992e-4 3.435273875637315e-4 3.478484301610829e-4
      3.522238247833497e-4 3.566542550948439e-4 3.611404133593155e-4 3.656830005481203e-4
      3.702827264497487e-4 3.749403097807306e-4 3.796564782979381e-4 3.844319689122967e-4
      3.892675278039306e-4 3.941639105387550e-4 3.991218821865335e-4 4.041422174404237e-4
      4.092257007380226e-4 4.143731263839380e-4 4.195852986738995e-4 4.248630320204317e-4
      4.302071510801077e-4 4.356184908824033e-4 4.410978969601717e-4 4.466462254817610e-4
      4.522643433847906e-4 4.579531285116131e-4 4.637134697464782e-4 4.695462671544238e-4
      4.754524321219115e-4 4.814328874992336e-4 4.874885677447105e-4 4.936204190707006e-4
      4.998293995914489e-4 5.061164794727945e-4 5.124826410837593e-4 5.189288791500478e-4
      5.254562009094726e-4 5.320656262693380e-4 5.387581879658042e-4 5.455349317252519e-4
      5.523969164276814e-4 5.593452142721630e-4 5.663809109443710e-4 5.735051057862253e-4
      5.807189119676635e-4 5.880234566605788e-4 5.954198812149403e-4 6.029093413371325e-4
      6.104930072705375e-4 6.181720639783859e-4 6.259477113289122e-4 6.338211642828339e-4
      6.417936530831938e-4 6.498664234475876e-4 6.580407367628083e-4 6.663178702819428e-4
      6.746991173239430e-4 6.831857874757108e-4 6.917792067967243e-4 7.004807180262354e-4
      7.092916807930772e-4 7.182134718281081e-4 7.272474851793286e-4 7.363951324297051e-4
      7.456578429177309e-4 7.550370639607657e-4 7.645342610811793e-4 7.741509182353433e-4
      7.838885380455044e-4 7.937486420345683e-4 8.037327708638445e-4 8.138424845737754e-4
      8.240793628276958e-4 8.344450051586612e-4 8.449410312193734e-4 8.555690810352601e-4
      8.663308152607275e-4 8.772279154386425e-4 8.882620842630793e-4 8.994350458453649e-4
      9.107485459834793e-4 9.222043524348361e-4 9.338042551924994e-4 9.455500667648767e-4
      9.574436224589219e-4 9.694867806669111e-4 9.816814231568157e-4 9.940294553663351e-4
      1.006532806700623e-3 1.019193430833765e-3 1.032013306014041e-3 1.044994435373029e-3
      1.058138847238601e-3 1.071448595451854e-3 1.084925759688026e-3 1.098572445781448e-3
      1.112390786054586e-3 1.126382939651222e-3 1.140551092873822e-3 1.154897459525153e-3
      1.169424281254192e-3 1.184133827906389e-3 1.199028397878336e-3 1.214110318476892e-3
      1.229381946282838e-3 1.244845667519088e-3 1.260503898423545e-3 1.276359085626647e-3
      1.292413706533649e-3 1.308670269711735e-3 1.325131315281973e-3 1.341799415316224e-3
      1.358677174239031e-3 1.375767229234562e-3 1.393072250658682e-3 1.410594942456195e-3
      1.428338042583344e-3 1.446304323435623e-3 1.464496592280968e-3 1.482917691698398e-3
      1.501570500022176e-3 1.520457931791552e-3 1.539582938206165e-3 1.558948507587178e-3
      1.578557665844208e-3 1.598413476948126e-3 1.618519043409816e-3 1.638877506764940e-3
      1.659492048064817e-3 1.680365888373469e-3 1.701502289270910e-3 1.722904553362783e-3
      1.744576024796396e-3 1.766520089783248e-3 1.788740177128144e-3 1.811239758764936e-3
      1.834022350299032e-3 1.857091511556709e-3 1.880450847141347e-3 1.904104006996660e-3
      1.928054686976995e-3 1.952306629424829e-3 1.976863623755508e-3 2.001729507049359e-3
      2.026908164651237e-3 2.052403530777619e-3 2.078219589131333e-3 2.104360373524019e-3
      2.130829968506422e-3 2.157632510006610e-3 2.184772185976226e-3 2.212253237044854e-3
      2.240079957182635e-3 2.268256694371203e-3 2.296787851283070e-3 2.325677885969552e-3
      2.354931312557345e-3 2.384552701953871e-3 2.414546682561487e-3 2.444917941000685e-3
      2.475671222842389e-3 2.506811333349456e-3 2.538343138227505e-3 2.570271564385202e-3
      2.602601600704090e-3 2.635338298818124e-3 2.668486773902986e-3 2.702052205475349e-3
      2.736039838202186e-3 2.770454982720255e-3 2.805303016465912e-3 2.840589384515324e-3
      2.876319600435291e-3 2.912499247144744e-3 2.949133977787086e-3 2.986229516613519e-3
      3.023791659877455e-3 3.061826276740199e-3 3.100339310188017e-3 3.139336777960739e-3
      3.178824773492050e-3 3.218809466861588e-3 3.259297105759043e-3 3.300294016460362e-3
      3.341806604816253e-3 3.383841357253106e-3 3.426404841786510e-3 3.469503709047517e-3
      3.513144693321823e-3 3.557334613602006e-3 3.602080374653021e-3 3.647388968091064e-3
      3.693267473476042e-3 3.739723059417763e-3 3.786762984696040e-3 3.834394599394908e-3
      3.882625346051066e-3 3.931462760816809e-3 3.980914474637554e-3 4.030988214444189e-3
      4.081691804360444e-3 4.133033166925398e-3 4.185020324331404e-3 4.237661399677577e-3
      4.290964618239035e-3 4.344938308752133e-3 4.399590904715817e-3 4.454930945709402e-3
      4.510967078726881e-3 4.567708059528041e-3 4.625162754006581e-3 4.683340139575400e-3
      4.742249306569358e-3 4.801899459665648e-3 4.862299919322048e-3 4.923460123233271e-3
      4.985389627805608e-3 5.048098109650143e-3 5.111595367094745e-3 5.175891321715074e-3
      5.240996019884859e-3 5.306919634345640e-3 5.373672465796297e-3 5.441264944502560e-3
      5.509707631926732e-3 5.579011222377988e-3 5.649186544683325e-3 5.720244563879629e-3
      5.792196382926967e-3 5.865053244443448e-3 5.938826532461921e-3 6.013527774208729e-3
      6.089168641904873e-3 6.165760954589825e-3 6.243316679968265e-3 6.321847936280081e-3
      6.401366994193840e-3 6.481886278724125e-3 6.563418371172959e-3 6.645976011095664e-3
      6.729572098291450e-3 6.814219694819017e-3 6.899932027037535e-3 6.986722487673297e-3
      7.074604637912351e-3 7.163592209519481e-3 7.253699106983790e-3 7.344939409691330e-3
      7.437327374125029e-3 7.530877436092288e-3 7.625604212980632e-3 7.721522506041669e-3
      7.818647302703834e-3 7.916993778914207e-3 8.016577301509775e-3 8.117413430618569e-3
      8.219517922090901e-3 8.322906729961298e-3 8.427596008941338e-3 8.533602116943843e-3
      8.640941617638877e-3 8.749631283041804e-3 8.859688096133965e-3 8.971129253516320e-3
      9.083972168096437e-3 9.198234471809311e-3 9.313934018372358e-3 9.431088886075122e-3
      9.549717380604035e-3 9.669838037902711e-3 9.791469627068256e-3 9.914631153283928e-3
      1.003934186078878e-2 1.016562123588457e-2 1.029348900998058e-2 1.042296516267668e-2
      1.055406992488513e-2 1.068682378199176e-2 1.082124747705685e-2 1.095736201405621e-2
      1.109518866116321e-2 1.123474895407185e-2 1.137606469936184e-2 1.151915797790588e-2
      1.166405114831987e-2 1.181076685045650e-2 1.195932800894270e-2 1.210975783676174e-2
      1.226207983888026e-2 1.241631781592100e-2 1.257249586788168e-2 1.273063839790066e-2
      1.289077011606999e-2 1.305291604329644e-2 1.321710151521100e-2 1.338335218612773e-2
      1.355169403305219e-2 1.372215335974044e-2 1.389475680080909e-2 1.406953132589696e-2
      1.424650424387919e-2 1.442570320713427e-2 1.460715621586479e-2 1.479089162247252e-2
      1.497693813598855e-2 1.516532482655917e-2 1.535608112998803e-2 1.554923685233563e-2
      1.574482217457659e-2 1.594286765731539e-2 1.614340424556168e-2 1.634646327356536e-2
      1.655207646971266e-2 1.676027596148382e-2 1.697109428047299e-2 1.718456436747146e-2
      1.740071957761461e-2 1.761959368559381e-2 1.784122089093372e-2 1.806563582333607e-2
      1.829287354809066e-2 1.852296957155427e-2 1.875595984669871e-2 1.899188077872850e-2
      1.923076923076923e-2 1.947266252962759e-2 1.971759847162364e-2 1.996561532849664e-2
      2.021675185338509e-2 2.047104728688191e-2 2.072854136316599e-2 2.098927431621061e-2
      2.125328688607016e-2 2.152062032524579e-2 2.179131640513127e-2 2.206541742253985e-2
      2.234296620631315e-2 2.262400612401329e-2 2.290858108869921e-2 2.319673556578809e-2
      2.348851458000327e-2 2.378396372240933e-2 2.408312915753587e-2 2.438605763059078e-2
      2.469279647476426e-2 2.500339361862483e-2 2.531789759360812e-2 2.563635754160006e-2
      2.595882322261546e-2 2.628534502257301e-2 2.661597396116830e-2 2.695076169984565e-2
      2.728976054987035e-2 2.763302348050241e-2 2.798060412727310e-2 2.833255680036569e-2
      2.868893649310136e-2 2.904979889053218e-2 2.941520037814192e-2 2.978519805065640e-2
      3.015984972096479e-2 3.053921392915277e-2 3.092334995164969e-2 3.131231781049060e-2
      3.170617828269477e-2 3.210499290976237e-2 3.250882400729023e-2 3.291773467470894e-2
      3.333178880514224e-2 3.375105109539035e-2 3.417558705603921e-2 3.460546302169632e-2
      3.504074616135596e-2 3.548150448889425e-2 3.592780687369657e-2 3.637972305141866e-2
      3.683732363488263e-2 3.730068012511067e-2 3.776986492249709e-2 3.824495133812100e-2
      3.872601360520148e-2 3.921312689069645e-2 3.970636730704784e-2 4.020581192407418e-2
      4.071153878101297e-2 4.122362689871461e-2 4.174215629198929e-2 4.226720798210967e-2
      4.279886400947056e-2 4.333720744640786e-2 4.388232241017892e-2 4.443429407610585e-2
      4.499320869088447e-2 4.555915358606041e-2 4.613221719167496e-2 4.671248905008247e-2
      4.730005982994135e-2 4.789502134038139e-2 4.849746654534903e-2 4.910748957813321e-2
      4.972518575607398e-2 5.035065159545581e-2 5.098398482658862e-2 5.162528440907831e-2
      5.227465054728933e-2 5.293218470600206e-2 5.359798962626638e-2 5.427216934145576e-2
      5.495482919352241e-2 5.564607584945694e-2 5.634601731795587e-2 5.705476296629747e-2
      5.777242353743138e-2 5.849911116728203e-2 5.923493940226983e-2 5.998002321705376e-2
      6.073447903249556e-2 6.149842473385143e-2 6.227197968919160e-2 6.305526476805142e-2
      6.384840236031829e-2 6.465151639535444e-2 6.546473236136188e-2 6.628817732498994e-2
      6.712197995118927e-2 6.796627052331681e-2 6.882118096349194e-2 6.968684485321041e-2
      7.056339745421627e-2 7.145097572963661e-2 7.234971836538296e-2 7.325976579182043e-2
      7.418126020571102e-2 7.511434559243182e-2 7.605916774847264e-2 7.701587430421787e-2
      7.798461474701300e-2 7.896554044452330e-2 7.995880466838480e-2 8.096456261815309e-2
      8.198297144555427e-2 8.301419027903933e-2 8.405838024864918e-2 8.511570451119111e-2
      8.618632827573201e-2 8.727041882941361e-2 8.836814556359020e-2 8.947968000029748e-2
      9.060519581905279e-2 9.174486888399237e-2 9.289887727135161e-2 9.406740129728858e-2
      9.525062354605986e-2 9.644872889854929e-2 9.766190456115542e-2 9.889034009504407e-2
      1.001342274457664e-1 1.013937609732517e-1 1.026691374821765e-1 1.039605562527147e-1
      1.052682190716770e-1 1.065923302640389e-1 1.079330967248684e-1 1.092907279516528e-1
      1.106654360770333e-1 1.120574359019515e-1 1.134669449292119e-1 1.148941833974677e-1
      1.163393743156337e-1 1.178027434977305e-1 1.192845195981706e-1 1.207849341474840e-1
      1.223042215884967e-1 1.238426193129628e-1 1.254003676986560e-1 1.269777101469314e-1
      1.285748931207552e-1 1.301921661832168e-1 1.318297820365227e-1 1.334879965614814e-1
      1.351670688574865e-1 1.368672612830000e-1 1.385888394965474e-1 1.403320724982276e-1
      1.420972326717433e-1 1.438845958269632e-1 1.456944412430163e-1 1.475270517119313e-1
      1.493827135828226e-1 1.512617168066325e-1 1.531643549814381e-1 1.550909253983245e-1
      1.570417290878394e-1 1.590170708670283e-1 1.610172593870628e-1 1.630426071814689e-1
      1.650934307149595e-1 1.671700504328846e-1 1.692727908113003e-1 1.714019804076680e-1
      1.735579519121948e-1 1.757410421998140e-1 1.779515923828248e-1 1.801899478641911e-1
      1.824564583915101e-1 1.847514781116637e-1 1.870753656261517e-1 1.894284840471266e-1
      1.918112010541293e-1 1.942238889515395e-1 1.966669247267502e-1 1.991406901090711e-1
      2.016455716293764e-1 2.041819606805002e-1 2.067502535783914e-1 2.093508516240413e-1
      2.119841611661847e-1 2.146505936647955e-1 2.173505657553767e-1 2.200844993140600e-1
      2.228528215235270e-1 2.256559649397541e-1 2.284943675596038e-1 2.313684728892604e-1
      2.342787300135283e-1 2.372255936660051e-1 2.402095243001310e-1 2.432309881611389e-1
      2.462904573589046e-1 2.493884099417141e-1 2.525253299709621e-1 2.557017075967844e-1
      2.589180391346483e-1 2.621748271428993e-1 2.654725805012903e-1 2.688118144904932e-1
      2.721930508726117e-1 2.756168179727105e-1 2.790836507613639e-1 2.825940909382489e-1
      2.861486870167856e-1 2.897479944098422e-1 2.933925755165227e-1 2.970829998100389e-1
      3.008198439266956e-1 3.046036917559891e-1 3.084351345318399e-1 3.123147709249781e-1
      3.162432071364820e-1 3.202210569925028e-1 3.242489420401740e-1 3.283274916447281e-1
      3.324573430878397e-1 3.366391416671979e-1 3.408735407973393e-1 3.451612021117434e-1
      3.495027955662128e-1 3.538989995435591e-1 3.583505009595965e-1 3.628579953704785e-1
      3.674221870813783e-1 3.720437892565350e-1 3.767235240306927e-1 3.814621226219295e-1
      3.862603254459167e-1 3.911188822316083e-1 3.960385521383853e-1 4.010201038746814e-1
      4.060643158180890e-1 4.111719761369874e-1 4.163438829136937e-1 4.215808442691629e-1
      4.268836784892628e-1 4.322532141526274e-1 4.376902902601294e-1 4.431957563659731e-1
      4.487704727104370e-1 4.544153103542933e-1 4.601311513149068e-1 4.659188887040573e-1
      4.717794268674879e-1 4.777136815262086e-1 4.837225799195846e-1 4.898070609502134e-1
      4.959680753306358e-1 5.022065857318845e-1 5.085235669339000e-1 5.149200059778492e-1
      5.213969023203444e-1 5.279552679896174e-1 5.345961277436480e-1 5.413205192302818e-1
      5.481294931493715e-1 5.550241134169430e-1 5.620054573314412e-1 5.690746157420573e-1
      5.762326932191736e-1 5.834808082269608e-1 5.908200932981334e-1 5.982516952109166e-1
      6.057767751682301e-1 6.133965089791250e-1 6.211120872425139e-1 6.289247155331957e-1
      6.368356145902368e-1 6.448460205077109e-1 6.529571849278375e-1 6.611703752365621e-1
      6.694868747615779e-1 6.779079829728564e-1 6.864350156856905e-1 6.950693052662872e-1
      7.038122008399624e-1 7.126650685019344e-1 7.216292915307885e-1 7.307062706046116e-1
      7.398974240198488e-1 7.492041879129234e-1 7.586280164846261e-1 7.681703822273449e-1
      7.778327761551430e-1 7.876167080367270e-1 7.975237066313619e-1 8.075553199277310e-1
      8.177131153858229e-1 8.279986801818454e-1 8.384136214562213e-1 8.489595665647171e-1
      8.596381633327088e-1 8.704510803126684e-1 8.814000070448753e-1 8.924866543214033e-1
      9.037127544534490e-1 9.150800615419943e-1 9.265903517519003e-1 9.382454235894320e-1
      9.500470981832729e-1 9.619972195690925e-1 9.740976549776667e-1 9.863502951266481e-1
      9.987570545159901e-1 1.011319871727086e0 1.024040709725687e0 1.036921556168607e0
      1.049964423714312e0 1.063171350337394e0 1.076544399647003e0 1.090085661209305e0
      1.103797250873966e0 1.117681311104769e0 1.131740011314374e0 1.145975548203288e0
      1.160390146103117e0 1.174986057324103e0 1.189765562507075e0 1.204730970979787e0
      1.219884621117757e0 1.235228880709653e0 1.250766147327250e0 1.266498848700071e0
      1.282429443094716e0 1.298560419698964e0 1.314894299010735e0 1.331433633231897e0
      1.348181006667074e0 1.365139036127441e0 1.382310371339597e0 1.399697695359611e0
      1.417303724992228e0 1.435131211215402e0 1.453182939610129e0 1.471461730795690e0
      1.489970440870403e0 1.508711961857868e0 1.527689222158872e0 1.546905187008948e0
      1.566362858941695e0 1.586065278257944e0 1.606015523500794e0 1.626216711936654e0
      1.646672000042320e0 1.667384583998171e0 1.688357700187595e0 1.709594625702660e0
      1.731098678856189e0 1.752873219700239e0 1.774921650551113e0 1.797247416520995e0
      1.819854006056234e0 1.842744951482440e0 1.865923829556412e0 1.889394262025001e0
      1.913159916191038e0 1.937224505486329e0 1.961591790051917e0 1.986265577325593e0
      2.011249722636812e0 2.036548129809116e0 2.062164751770088e0 2.088103591169031e0
      2.114368701002377e0 2.140964185246968e0 2.167894199501333e0 2.195162951634981e0
      2.222774702445917e0 2.250733766326383e0 2.279044511936987e0 2.307711362889338e0
      2.336738798437211e0 2.366131354176472e0 2.395893622753759e0 2.426030254584080e0
      2.456545958577482e0 2.487445502874788e0 2.518733715592665e0 2.550415485578013e0
      2.582495763171837e0 2.614979560982791e0 2.647871954670360e0 2.681178083737984e0
      2.714903152336096e0 2.749052430075269e0 2.783631252849637e0 2.818645023670600e0
      2.854099213511089e0 2.889999362160403e0 2.926351079089800e0 2.963160044329017e0
      3.000432009353752e0 3.038172797984374e0 3.076388307295898e0 3.115084508539391e0
      3.154267448075038e0 3.193943248316848e0 3.234118108689335e0 3.274798306596176e0
      3.315990198401045e0 3.357700220420855e0 3.399934889931393e0 3.442700806185705e0
      3.486004651445219e0 3.529853192023846e0 3.574253279345275e0 3.619211851013471e0
      3.664735931896731e0 3.710832635225319e0 3.757509163702903e0 3.804772810632033e0
      3.852630961053689e0 3.901091092901248e0 3.950160778168911e0 3.999847684094820e0
      4.050159574359130e0 4.101104310297040e0 4.152689852127194e0 4.204924260195465e0
      4.257815696234369e0 4.311372424638409e0 4.365602813755348e0 4.420515337193824e0
      4.476118575147352e0 4.532421215734973e0 4.589432056358843e0 4.647160005078784e0
      4.705614082004238e0 4.764803420703660e0 4.824737269631627e0 4.885424993573986e0
      4.946876075111057e0 5.009100116099361e0 5.072106839171909e0 5.135906089257348e0
      5.200507835118326e0 5.265922170909049e0 5.332159317752576e0 5.399229625337876e0
      5.467143573536941e0 5.535911774042372e0 5.605544972025388e0 5.676054047814852e0
      5.747450018597319e0 5.819744040138459e0 5.892947408526242e0 5.967071561935892e0
      6.042128082417197e0 6.118128697704194e0 6.195085283047626e0 6.273009863070545e0
      6.351914613647095e0 6.431811863805097e0 6.512714097652453e0 6.594633956327777e0
      6.677584239975674e0 6.761577909746707e0 6.846628089822675e0 6.932748069467264e0
      7.019951305102479e0 7.108251422411332e0 7.197662218466773e0 7.288197663887606e0
      7.379871905021389e0 7.472699266154785e0 7.566694251751855e0 7.661871548720307e0
      7.758246028706444e0 7.855832750418856e0 7.954646961981323e0 8.054704103315467e0
      8.156019808553165e0 8.258609908479498e0 8.362490433006320e0 8.467677613676901e0
      8.574187886202260e0 8.682037893029145e0 8.791244485940556e0 8.901824728688839e0
      9.013795899661865e0 9.127175494582941e0 9.241981229244411e0 9.358231042275907e0
      9.475943097947246e0 9.595135789006578e0 9.715827739554413e0 9.838037807953542e0
      9.961785089775807e0 1.008708892078578e1 1.021396887996195e1 1.034244479255610e1
      1.047253673319095e1 1.060426502899690e1 1.073765026278819e1 1.087271327627895e1
      1.100947517333984e1 1.114795732329551e1 1.128818136426363e1 1.143016920653593e1
      1.157394303600158e1 1.171952531761400e1 1.186693879890084e1 1.201620651351848e1
      1.216735178485104e1 1.232039822965463e1 1.247536976174767e1 1.263229059574730e1
      1.279118525085311e1 1.295207855467826e1 1.311499564712876e1 1.327996198433182e1
      1.344700334261319e1 1.361614582252499e1 1.378741585292385e1 1.396084019510041e1
      1.413644594696104e1 1.431426054726168e1 1.449431177989541e1 1.467662777823369e1
      1.486123702952211e1 1.504816837933186e1 1.523745103606658e1 1.542911457552652e1
      1.562318894552969e1 1.581970447059120e1 1.601869185666171e1 1.622018219592507e1
      1.642420697165676e1 1.663079806314311e1 1.683998775066242e1 1.705180872052902e1
      1.726629407020035e1 1.748347731344870e1 1.770339238559771e1 1.792607364882478e1
      1.815155589753038e1 1.837987436377457e1 1.861106472278224e1 1.884516309851739e1
      1.908220606932743e1 1.932223067365888e1 1.956527441584445e1 1.981137527196334e1
      2.006057169577508e1 2.031290262472779e1 2.056840748604258e1 2.082712620287377e1
      2.108909920054728e1 2.135436741287702e1 2.162297228856078e1 2.189495579765695e1
      2.217036043814209e1 2.244922924255164e1 2.273160578470369e1 2.301753418650738e1
      2.330705912485727e1 2.360022583861398e1 2.389708013567300e1 2.419766840012224e1
      2.450203759948950e1 2.481023529208151e1 2.512230963441467e1 2.543830938873995e1
      2.575828393066191e1 2.608228325685362e1 2.641035799286909e1 2.674255940105318e1
      2.707893938855184e1 2.741955051542254e1 2.776444600284674e1 2.811367974144614e1
      2.846730629970282e1 2.882538093248600e1 2.918795958968563e1 2.955509892495447e1
      2.992685630456069e1 3.030328981635112e1 3.068445827882787e1 3.107042125033876e1
      3.146123903838321e1 3.185697270903587e1 3.225768409648776e1 3.266343581270850e1
      3.307429125722932e1 3.349031462704918e1 3.391157092666615e1 3.433812597823398e1
      3.477004643184737e1 3.520739977595601e1 3.565025434790959e1 3.609867934463610e1
      3.655274483345348e1 3.701252176301821e1 3.747808197441106e1 3.794949821236208e1
      3.842684413661771e1 3.891019433344964e1 3.939962432730958e1 3.989521059262987e1
      4.039703056577265e1 4.090516265712979e1 4.141968626337423e1 4.194068177986633e1
      4.246823061321559e1 4.300241519400038e1 4.354331898964840e1 4.409102651747805e1
      4.464562335790494e1 4.520719616781380e1 4.577583269409858e1 4.635162178737353e1
      4.693465341585578e1 4.752501867942356e1 4.812280982385049e1 4.872812025521892e1
      4.934104455451545e1 4.996167849240867e1 5.059011904421415e1 5.122646440504678e1
      5.187081400516366e1 5.252326852550092e1 5.318392991340462e1 5.385290139856084e1
      5.453028750912526e1 5.521619408805561e1 5.591072830965054e1 5.661399869629501e1
      5.732611513541785e1 5.804718889666160e1 5.877733264926826e1 5.951666047968490e1
      6.026528790938896e1 6.102333191293955e1 6.179091093625456e1 6.256814491511785e1
      6.335515529392012e1 6.415206504463400e1 6.495899868602952e1 6.577608230312994e1
      6.660344356691259e1 6.744121175425845e1 6.828951776815100e1 6.914849415813094e1
      7.001827514100690e1 7.089899662182680e1 7.179079621511413e1 7.269381326636946e1
      7.360818887384436e1 7.453406591058794e1 7.547158904677068e1 7.642090477229023e1