<UPF version="2.0.1">
  <PP_INFO>
Generated using "atomic" code by A. Dal Corso  v.6.2.2
Author: ADC
Generation date:  4May2018
Pseudopotential type: USPP
Element: Tm
Functional: PBE
    Suggested minimum cutoff for wavefunctions:  38. Ry
    Suggested minimum cutoff for charge density: 316. Ry
    The Pseudo was generated with a Scalar-Relativistic Calculation
    Local Potential by smoothing AE potential with Bessel fncs, cutoff radius:   2.1000
    Pseudopotential contains additional information for GIPAW reconstruction.
    Valence configuration:
    nl pn  l   occ       Rcut    Rcut US       E pseu
    5S  1  0  2.00      1.100      1.600    -4.291405
    6S  2  0  1.50      1.100      1.600    -0.361420
    5P  2  1  6.00      1.100      1.700    -2.286436
    6P  3  1  0.50      1.100      1.700    -0.122258
    5D  3  2  1.00      1.100      2.000    -0.185743
    Generation configuration:
    5S  1  0  2.00      1.100      1.600    -4.291452
    6S  2  0  1.50      1.100      1.600    -0.361427
    5P  2  1  6.00      1.100      1.700    -2.286472
    6P  3  1  0.50      1.100      1.700    -0.122261
    5D  3  2  1.00      1.100      2.000    -0.185759
    5D  3  2  0.00      1.100      2.000     2.000000
    Pseudization used: troullier-martins

    <PP_INPUTFILE>
 &amp;input
   title='Tm',
   zed=69.0,
   rel=1,
   config='[Xe] 4f12 5d1.0 6s1.5 6p0.5',
   iswitch=3,
   dft='PBE'
 /
 &amp;inputp
   lpaw=.false.,
   use_xsd=.FALSE.,
   pseudotype=3,
   file_pseudopw='Tm.pbe-spdn-rrkjus_psl.1.0.0.UPF',
   author='ADC',
   lloc=-1,
   rcloc=2.1,
   which_augfun='PSQ',
   rmatch_augfun_nc=.true.,
   nlcc=.true.,
   new_core_ps=.true.,
   rcore=1.1,
   tm=.true.
 /
6
5S  1  0  2.00  0.00  1.10  1.60  0.0
6S  2  0  1.50  0.00  1.10  1.60  0.0
5P  2  1  6.00  0.00  1.10  1.70  0.0
6P  3  1  0.50  0.00  1.10  1.70  0.0
5D  3  2  1.00  0.00  1.10  2.00  0.0
5D  3  2  0.00  2.00  1.10  2.00  0.0
</PP_INPUTFILE>
  </PP_INFO>
  <!--
 END OF HUMAN READABLE SECTION 
-->
  <PP_HEADER generated="Generated using &quot;atomic&quot; code by A. Dal Corso  v.6.2.2" author="ADC" date=" 4May2018" comment="" element="Tm" pseudo_type="USPP" relativistic="scalar" is_ultrasoft="true" is_paw="false" is_coulomb="false" has_so="false" has_wfc="false" has_gipaw="true" paw_as_gipaw="false" core_correction="true" functional="PBE" z_valence="1.100000000000e1" total_psenergy="-1.233533253990e2" wfc_cutoff="3.782516676249e1" rho_cutoff="3.164720763282e2" l_max="2" l_max_rho="4" l_local="-1" mesh_size="1269" number_of_wfc="5" number_of_proj="6"/>
  <PP_MESH dx="1.250000000000e-2" mesh="1269" xmin="-7.000000000000e0" rmax="1.000000000000e2" zmesh="6.900000000000e1">
    <PP_R>
      1.321568066021038e-5 1.338191345897134e-5 1.355023720893598e-5 1.372067821103267e-5
      1.389326309701478e-5 1.406801883362187e-5 1.424497272679331e-5 1.442415242593494e-5
      1.460558592823928e-5 1.478930158306021e-5 1.497532809634257e-5 1.516369453510751e-5
      1.535443033199435e-5 1.554756528985938e-5 1.574312958643272e-5 1.594115377903360e-5
      1.614166880934498e-5 1.634470600824829e-5 1.655029710071895e-5 1.675847421078345e-5
      1.696926986653876e-5 1.718271700523497e-5 1.739884897842176e-5 1.761769955715964e-5
      1.783930293729683e-5 1.806369374481231e-5 1.829090704122630e-5 1.852097832907862e-5
      1.875394355747606e-5 1.898983912770956e-5 1.922870189894190e-5 1.947056919396706e-5
      1.971547880504194e-5 1.996346899979155e-5 2.021457852718839e-5 2.046884662360698e-5
      2.072631301895470e-5 2.098701794287964e-5 2.125100213105657e-5 2.151830683155199e-5
      2.178897381126917e-5 2.206304536247437e-5 2.234056430940508e-5 2.262157401496134e-5
      2.290611838748140e-5 2.319424188760238e-5 2.348598953520734e-5 2.378140691645980e-5
      2.408054019092658e-5 2.438343609879045e-5 2.469014196815325e-5 2.500070572243104e-5
      2.531517588784231e-5 2.563360160099015e-5 2.595603261654014e-5 2.628251931499443e-5
      2.661311271056387e-5 2.694786445913914e-5 2.728682686636199e-5 2.763005289579821e-5
      2.797759617721317e-5 2.832951101495170e-5 2.868585239642313e-5 2.904667600069331e-5
      2.941203820718455e-5 2.978199610448491e-5 3.015660749926855e-5 3.053593092532803e-5
      3.092002565272041e-5 3.130895169702832e-5 3.170276982873746e-5 3.210154158273213e-5
      3.250532926791019e-5 3.291419597691894e-5 3.332820559601357e-5 3.374742281503932e-5
      3.417191313753961e-5 3.460174289099093e-5 3.503697923716671e-5 3.547769018263163e-5
      3.592394458936751e-5 3.637581218553332e-5 3.683336357636027e-5 3.729667025518407e-5
      3.776580461461592e-5 3.824083995785394e-5 3.872185051013695e-5 3.920891143034241e-5
      3.970209882272997e-5 4.020148974883317e-5 4.070716223950019e-5 4.121919530708649e-5
      4.173766895780063e-5 4.226266420420533e-5 4.279426307787604e-5 4.333254864221826e-5
      4.387760500544660e-5 4.442951733372672e-5 4.498837186448274e-5 4.555425591987218e-5
      4.612725792042996e-5 4.670746739888444e-5 4.729497501414707e-5 4.788987256547800e-5
      4.849225300683004e-5 4.910221046137264e-5 4.971984023619904e-5 5.034523883721818e-5
      5.097850398423375e-5 5.161973462621347e-5 5.226903095674972e-5 5.292649442971511e-5
      5.359222777511496e-5 5.426633501513884e-5 5.494892148041462e-5 5.564009382646614e-5
      5.633996005037869e-5 5.704862950767366e-5 5.776621292939552e-5 5.849282243941389e-5
      5.922857157194300e-5 5.997357528928169e-5 6.072794999977652e-5 6.149181357601073e-5
      6.226528537322231e-5 6.304848624795316e-5 6.384153857693340e-5 6.464456627620291e-5
      6.545769482047341e-5 6.628105126273440e-5 6.711476425410501e-5 6.795896406393640e-5
      6.881378260016636e-5 6.967935342993023e-5 7.055581180043136e-5 7.144329466007321e-5
      7.234194067985822e-5 7.325189027505528e-5 7.417328562713986e-5 7.510627070601050e-5
      7.605099129248383e-5 7.700759500107357e-5 7.797623130305537e-5 7.895705154982211e-5
      7.995020899653293e-5 8.095585882605940e-5 8.197415817323346e-5 8.300526614939978e-5
      8.404934386727742e-5 8.510655446613407e-5 8.617706313727675e-5 8.726103714986317e-5
      8.835864587703824e-5 8.947006082239859e-5 9.059545564679073e-5 9.173500619544559e-5
      9.288889052545484e-5 9.405728893359257e-5 9.524038398448715e-5 9.643836053914743e-5
      9.765140578384734e-5 9.887970925937431e-5 1.001234628906454e-4 1.013828610166958e-4
      1.026581004210453e-4 1.039493803624449e-4 1.052569026060129e-4 1.065808714547599e-4
      1.079214937815122e-4 1.092789790612359e-4 1.106535394037676e-4 1.120453895869576e-4
      1.134547470902286e-4 1.148818321285579e-4 1.163268676868864e-4 1.177900795549596e-4
      1.192716963626091e-4 1.207719496154755e-4 1.222910737311816e-4 1.238293060759616e-4
      1.253868870017483e-4 1.269640598837308e-4 1.285610711583806e-4 1.301781703619582e-4
      1.318156101695047e-4 1.334736464343208e-4 1.351525382279468e-4 1.368525478806407e-4
      1.385739410223696e-4 1.403169866243144e-4 1.420819570408960e-4 1.438691280523335e-4
      1.456787789077331e-4 1.475111923687227e-4 1.493666547536341e-4 1.512454559822392e-4
      1.531478896210530e-4 1.550742529292019e-4 1.570248469048718e-4 1.589999763323404e-4
      1.609999498295986e-4 1.630250798965749e-4 1.650756829639620e-4 1.671520794426612e-4
      1.692545937738472e-4 1.713835544796611e-4 1.735392942145453e-4 1.757221498172188e-4
      1.779324623633107e-4 1.801705772186535e-4 1.824368440932464e-4 1.847316170958996e-4
      1.870552547895634e-4 1.894081202473548e-4 1.917905811092890e-4 1.942030096397222e-4
      1.966457827855208e-4 1.991192822349586e-4 2.016238944773568e-4 2.041600108634744e-4
      2.067280276666559e-4 2.093283461447519e-4 2.119613726028148e-4 2.146275184565855e-4
      2.173272002967785e-4 2.200608399541731e-4 2.228288645655280e-4 2.256317066403201e-4
      2.284698041283259e-4 2.313436004880525e-4 2.342535447560272e-4 2.372000916169627e-4
      2.401837014748008e-4 2.432048405246516e-4 2.462639808256389e-4 2.493616003746577e-4
      2.524981831810654e-4 2.556742193423067e-4 2.588902051204933e-4 2.621466430199466e-4
      2.654440418657127e-4 2.687829168830707e-4 2.721637897780349e-4 2.755871888188733e-4
      2.790536489186511e-4 2.825637117188116e-4 2.861179256738084e-4 2.897168461368033e-4
      2.933610354464405e-4 2.970510630147139e-4 3.007875054159382e-4 3.045709464768410e-4
      3.084019773677851e-4 3.122811966951416e-4 3.162092105948228e-4 3.201866328269920e-4
      3.242140848719652e-4 3.282921960273184e-4 3.324216035062164e-4 3.366029525369793e-4
      3.408368964639002e-4 3.451240968493316e-4 3.494652235770561e-4 3.538609549569570e-4
      3.583119778310058e-4 3.628189876805818e-4 3.673826887351441e-4 3.720037940822671e-4
      3.766830257790630e-4 3.814211149650044e-4 3.862188019761664e-4 3.910768364609057e-4
      3.959959774969938e-4 4.009769937102257e-4 4.060206633945191e-4 4.111277746335232e-4
      4.162991254237600e-4 4.215355237993112e-4 4.268377879580767e-4 4.322067463896190e-4
      4.376432380046159e-4 4.431481122659434e-4 4.487222293214043e-4 4.543664601381288e-4
      4.600816866386660e-4 4.658688018387835e-4 4.717287099870063e-4 4.776623267059039e-4
      4.836705791351607e-4 4.897544060764428e-4 4.959147581400876e-4 5.021525978936381e-4
      5.084689000122467e-4 5.148646514309706e-4 5.213408514989806e-4 5.278985121357136e-4
      5.345386579889856e-4 5.412623265950960e-4 5.480705685409433e-4 5.549644476281835e-4
      5.619450410394494e-4 5.690134395066639e-4 5.761707474814683e-4 5.834180833077950e-4
      5.907565793966119e-4 5.981873824028630e-4 6.057116534046365e-4 6.133305680845843e-4
      6.210453169136258e-4 6.288571053369619e-4 6.367671539624265e-4 6.447766987512106e-4
      6.528869912109831e-4 6.610992985914407e-4 6.694149040823206e-4 6.778351070138983e-4
      6.863612230600136e-4 6.949945844436445e-4 7.037365401450719e-4 7.125884561126607e-4
      7.215517154762891e-4 7.306277187634692e-4 7.398178841181799e-4 7.491236475224554e-4
      7.585464630207593e-4 7.680878029471855e-4 7.777491581555092e-4 7.875320382521376e-4
      7.974379718319893e-4 8.074685067173391e-4 8.176252101996718e-4 8.279096692845695e-4
      8.383234909396881e-4 8.488683023458488e-4 8.595457511512860e-4 8.703575057291008e-4
      8.813052554379418e-4 8.923907108859742e-4 9.036156041981659e-4 9.149816892869332e-4
      9.264907421261965e-4 9.381445610288777e-4 9.499449669278890e-4 9.618938036606615e-4
      9.739929382572427e-4 9.862442612320319e-4 9.986496868791674e-4 1.011211153571647e-3
      1.023930624064197e-3 1.036810085799960e-3 1.049851551221036e-3 1.063057058082929e-3
      1.076428669772955e-3 1.089968475632644e-3 1.103678591284208e-3 1.117561158961112e-3
      1.131618347842800e-3 1.145852354393633e-3 1.160265402706095e-3 1.174859744848308e-3
      1.189637661215925e-3 1.204601460888443e-3 1.219753481990006e-3 1.235096092054737e-3
      1.250631688396674e-3 1.266362698484353e-3 1.282291580320106e-3 1.298420822824126e-3
      1.314752946223370e-3 1.331290502445346e-3 1.348036075516862e-3 1.364992281967778e-3
      1.382161771239850e-3 1.399547226100708e-3 1.417151363063044e-3 1.434976932809077e-3
      1.453026720620344e-3 1.471303546812914e-3 1.489810267178064e-3 1.508549773428502e-3
      1.527524993650208e-3 1.546738892759945e-3 1.566194472968541e-3 1.585894774249985e-3
      1.605842874816434e-3 1.626041891599185e-3 1.646494980735707e-3 1.667205338062789e-3
      1.688176199615899e-3 1.709410842134820e-3 1.730912583575647e-3 1.752684783629228e-3
      1.774730844246115e-3 1.797054210168135e-3 1.819658369466628e-3 1.842546854087472e-3
      1.865723240402960e-3 1.889191149770604e-3 1.912954249098990e-3 1.937016251420733e-3
      1.961380916472648e-3 1.986052051283224e-3 2.011033510767468e-3 2.036329198329248e-3
      2.061943066471213e-3 2.087879117412366e-3 2.114141403713441e-3 2.140734028910099e-3
      2.167661148154132e-3 2.194926968862705e-3 2.222535751375775e-3 2.250491809621783e-3
      2.278799511791705e-3 2.307463281021599e-3 2.336487596083722e-3 2.365876992086354e-3
      2.395636061182413e-3 2.425769453286994e-3 2.456281876803915e-3 2.487178099361433e-3
      2.518462948557176e-3 2.550141312712486e-3 2.582218141636210e-3 2.614698447398128e-3
      2.647587305112098e-3 2.680889853729048e-3 2.714611296839958e-3 2.748756903488918e-3
      2.783332008996438e-3 2.818342015793096e-3 2.853792394263682e-3 2.889688683601959e-3
      2.926036492676166e-3 2.962841500905422e-3 3.000109459147142e-3 3.037846190595620e-3
      3.076057591691929e-3 3.114749633045227e-3 3.153928360365695e-3 3.193599895409188e-3
      3.233770436933765e-3 3.274446261668273e-3 3.315633725293079e-3 3.357339263433173e-3
      3.399569392663737e-3 3.442330711528379e-3 3.485629901570176e-3 3.529473728375664e-3
      3.573869042631980e-3 3.618822781197300e-3 3.664341968184731e-3 3.710433716059857e-3
      3.757105226752052e-3 3.804363792779818e-3 3.852216798390243e-3 3.900671720712810e-3
      3.949736130927720e-3 3.999417695448887e-3 4.049724177121846e-3 4.100663436436711e-3
      4.152243432756379e-3 4.204472225560223e-3 4.257357975703375e-3 4.310908946691894e-3
      4.365133505973946e-3 4.420040126247237e-3 4.475637386782898e-3 4.531933974765998e-3
      4.588938686652948e-3 4.646660429545955e-3 4.705108222584780e-3 4.764291198356002e-3
      4.824218604319995e-3 4.884899804255861e-3 4.946344279724549e-3 5.008561631550355e-3
      5.071561581321093e-3 5.135353972907084e-3 5.199948773999301e-3 5.265356077666834e-3
      5.331586103933947e-3 5.398649201377000e-3 5.466555848741407e-3 5.535316656578972e-3
      5.604942368905817e-3 5.675443864881144e-3 5.746832160507144e-3 5.819118410350244e-3
      5.892313909284049e-3 5.966430094254185e-3 6.041478546065338e-3 6.117470991190804e-3
      6.194419303604737e-3 6.272335506637500e-3 6.351231774854340e-3 6.431120435957681e-3
      6.512013972713357e-3 6.593925024901067e-3 6.676866391289362e-3 6.760851031635489e-3
      6.845892068710358e-3 6.932002790349046e-3 7.019196651526994e-3 7.107487276462411e-3
      7.196888460745071e-3 7.287414173491896e-3 7.379078559529699e-3 7.471895941605277e-3
      7.565880822623424e-3 7.661047887913010e-3 7.757412007521598e-3 7.854988238538946e-3
      7.953791827449662e-3 8.053838212515531e-3 8.155143026187769e-3 8.257722097549609e-3
      8.361591454789663e-3 8.466767327706320e-3 8.573266150243700e-3 8.681104563059504e-3
      8.790299416125123e-3 8.900867771358520e-3 9.012826905290149e-3 9.126194311762468e-3
      9.240987704663388e-3 9.357225020694088e-3 9.474924422171702e-3 9.594104299867164e-3
      9.714783275878835e-3 9.836980206542243e-3 9.960714185376409e-3 1.008600454606728e-2
      1.021287086548861e-2 1.034133296676091e-2 1.047141092234888e-2 1.060312505719771e-2
      1.073649595190896e-2 1.087154444595626e-2 1.100829164094158e-2 1.114675890389233e-2
      1.128696787060007e-2 1.142894044900111e-2 1.157269882259967e-2 1.171826545393410e-2
      1.186566308808670e-2 1.201491475623769e-2 1.216604377926388e-2 1.231907377138258e-2
      1.247402864384142e-2 1.263093260865447e-2 1.278981018238544e-2 1.295068618997849e-2
      1.311358576863710e-2 1.327853437175186e-2 1.344555777287759e-2 1.361468206976052e-2
      1.378593368841615e-2 1.395933938725829e-2 1.413492626128019e-2 1.431272174628815e-2
      1.449275362318841e-2 1.467505002232803e-2 1.485963942789028e-2 1.504655068234530e-2
      1.523581299095688e-2 1.542745592634579e-2 1.562150943311060e-2 1.581800383250656e-2
      1.601696982718331e-2 1.621843850598234e-2 1.642244134879458e-2 1.662901023147931e-2
      1.683817743084469e-2 1.704997562969118e-2 1.726443792191825e-2 1.748159781769537e-2
      1.770148924869812e-2 1.792414657340993e-2 1.814960458249080e-2 1.837789850421334e-2
      1.860906400996727e-2 1.884313721983321e-2 1.908015470822641e-2 1.932015350961164e-2
      1.956317112428991e-2 1.980924552425792e-2 2.005841515914133e-2 2.031071896220252e-2
      2.056619635642403e-2 2.082488726066849e-2 2.108683209591597e-2 2.135207179157994e-2
      2.162064779190247e-2 2.189260206243005e-2 2.216797709657072e-2 2.244681592223381e-2
      2.272916210855318e-2 2.301505977269484e-2 2.330455358675048e-2 2.359768878471755e-2
      2.389451116956708e-2 2.419506712040062e-2 2.449940359969698e-2 2.480756816065022e-2
      2.511960895459995e-2 2.543557473855505e-2 2.575551488281216e-2 2.607947937866970e-2
      2.640751884623928e-2 2.673968454235509e-2 2.707602836858294e-2 2.741660287933001e-2
      2.776146129005648e-2 2.811065748559065e-2 2.846424602854853e-2 2.882228216785930e-2
      2.918482184739822e-2 2.955192171472776e-2 2.992363912994910e-2 3.030003217466459e-2
      3.068115966105326e-2 3.106708114106029e-2 3.145785691570207e-2 3.185354804448845e-2
      3.225421635496332e-2 3.265992445236534e-2 3.307073572941021e-2 3.348671437619572e-2
      3.390792539023177e-2 3.433443458659625e-2 3.476630860821881e-2 3.520361493629403e-2
      3.564642190082536e-2 3.609479869130192e-2 3.654881536750942e-2 3.700854287047720e-2
      3.747405303356299e-2 3.794541859367684e-2 3.842271320264650e-2 3.890601143872568e-2
      3.939538881824703e-2 3.989092180742184e-2 4.039268783428771e-2 4.090076530080724e-2
      4.141523359511835e-2 4.193617310393857e-2 4.246366522512615e-2 4.299779238039809e-2
      4.353863802820916e-2 4.408628667679226e-2 4.464082389736276e-2 4.520233633748979e-2
      4.577091173463433e-2 4.634663892985905e-2 4.692960788170961e-2 4.751990968027064e-2
      4.811763656139929e-2 4.872288192113667e-2 4.933574033030171e-2 4.995630754926778e-2
      5.058468054292524e-2 5.122095749583295e-2 5.186523782755913e-2 5.251762220821653e-2
      5.317821257419198e-2 5.384711214407398e-2 5.452442543478138e-2 5.521025827789367e-2
      5.590471783618801e-2 5.660791262038341e-2 5.731995250609532e-2 5.804094875100477e-2
      5.877101401224167e-2 5.951026236398858e-2 6.025880931530448e-2 6.101677182817333e-2
      6.178426833578003e-2 6.256141876101515e-2 6.334834453521387e-2 6.414516861712951e-2
      6.495201551214587e-2 6.576901129173198e-2 6.659628361314043e-2 6.743396173935462e-2
      6.828217655928616e-2 6.914106060822612e-2 7.001074808855484e-2 7.089137489071024e-2
      7.178307861442192e-2 7.268599859021105e-2 7.360027590116060e-2 7.452605340496074e-2
      7.546347575622971e-2 7.641268942911726e-2 7.737384274019101e-2 7.834708587161111e-2
      7.933257089459717e-2 8.033045179318876e-2 8.134088448830658e-2 8.236402686211520e-2
      8.340003878269176e-2 8.444908212900694e-2 8.551132081621766e-2 8.658692082128004e-2
      8.767605020888334e-2 8.877887915770993e-2 8.989557998702713e-2 9.102632718361111e-2
      9.217129742901202e-2 9.333066962716035e-2 9.450462493232049e-2 9.569334677739761e-2
      9.689702090259813e-2 9.811583538445323e-2 9.934998066520555e-2 1.005996495825657e-1
      1.018650373998449e-1 1.031463418364637e-1 1.044437630988473e-1 1.057575039117078e-1
      1.070877695497196e-1 1.084347678695955e-1 1.097987093425630e-1 1.111798070872526e-1
      1.125782769029968e-1 1.139943373035492e-1 1.154282095512287e-1 1.168801176914909e-1
      1.183502885879369e-1 1.198389519577605e-1 1.213463404076415e-1 1.228726894700925e-1
      1.244182376402594e-1 1.259832264131884e-1 1.275679003215596e-1 1.291725069738947e-1
      1.307972970932483e-1 1.324425245563815e-1 1.341084464334332e-1 1.357953230280860e-1
      1.375034179182395e-1 1.392329979971958e-1 1.409843335153607e-1 1.427576981224722e-1
      1.445533689103584e-1 1.463716264562327e-1 1.482127548665364e-1 1.500770418213289e-1
      1.519647786192402e-1 1.538762602229857e-1 1.558117853054544e-1 1.577716562963789e-1
      1.597561794295885e-1 1.617656647908603e-1 1.638004263663708e-1 1.658607820917554e-1
      1.679470539017884e-1 1.700595677806843e-1 1.721986538130347e-1 1.743646462353846e-1
      1.765578834884562e-1 1.787787082700328e-1 1.810274675885045e-1 1.833045128170902e-1
      1.856101997487397e-1 1.879448886517266e-1 1.903089443259424e-1 1.927027361598955e-1
      1.951266381884306e-1 1.975810291511705e-1 2.000662925516970e-1 2.025828167174732e-1
      2.051309948605189e-1 2.077112251388543e-1 2.103239107187091e-1 2.129694598375209e-1
      2.156482858677225e-1 2.183608073813303e-1 2.211074482153505e-1 2.238886375380003e-1
      2.267048099157706e-1 2.295564053813251e-1 2.324438695022562e-1 2.353676534507080e-1
      2.383282140738705e-1 2.413260139653643e-1 2.443615215375225e-1 2.474352110945777e-1
      2.505475629067778e-1 2.536990632854245e-1 2.568902046588644e-1 2.601214856494298e-1
      2.633934111513488e-1 2.667064924096387e-1 2.700612470999857e-1 2.734581994096360e-1
      2.768978801192996e-1 2.803808266860844e-1 2.839075833274785e-1 2.874787011063816e-1
      2.910947380172126e-1 2.947562590730961e-1 2.984638363941454e-1 3.022180492968614e-1
      3.060194843846467e-1 3.098687356394688e-1 3.137664045146678e-1 3.177131000289344e-1
      3.217094388614734e-1 3.257560454483570e-1 3.298535520800975e-1 3.340025990004435e-1
      3.382038345064163e-1 3.424579150496123e-1 3.467655053387703e-1 3.511272784436374e-1
      3.555439159001359e-1 3.600161078168528e-1 3.645445529828753e-1 3.691299589769724e-1
      3.737730422781604e-1 3.784745283776521e-1 3.832351518922145e-1 3.880556566789588e-1
      3.929367959515639e-1 3.978793323979724e-1 4.028840382995607e-1 4.079516956518066e-1
      4.130830962864829e-1 4.182790419953773e-1 4.235403446555789e-1 4.288678263563330e-1
      4.342623195274931e-1 4.397246670695937e-1 4.452557224855498e-1 4.508563500140241e-1
      4.565274247644632e-1 4.622698328538333e-1 4.680844715450830e-1 4.739722493873359e-1
      4.799340863578596e-1 4.859709140058111e-1 4.920836755977907e-1 4.982733262652353e-1
      5.045408331536528e-1 5.108871755737471e-1 5.173133451544335e-1 5.238203459977816e-1
      5.304091948359137e-1 5.370809211898637e-1 5.438365675304492e-1 5.506771894411565e-1
      5.576038557830745e-1 5.646176488619133e-1 5.717196645971093e-1 5.789110126930716e-1
      5.861928168125715e-1 5.935662147523160e-1 6.010323586207363e-1 6.085924150180001e-1
      6.162475652183012e-1 6.239990053544341e-1 6.318479466046885e-1 6.397956153821057e-1
      6.478432535260994e-1 6.559921184965040e-1 6.642434835700509e-1 6.725986380393185e-1
      6.810588874141935e-1 6.896255536258508e-1 6.982999752333162e-1 7.070835076326155e-1
      7.159775232685535e-1 7.249834118491712e-1 7.341025805628792e-1 7.433364542983435e-1
      7.526864758671231e-1 7.621541062291080e-1 7.717408247208071e-1 7.814481292864864e-1
      7.912775367122354e-1 8.012305828629636e-1 8.113088229223791e-1 8.215138316359981e-1
      8.318472035571919e-1 8.423105532963476e-1 8.529055157731516e-1 8.636337464720434e-1
      8.744969217008993e-1 8.854967388529474e-1 8.966349166719985e-1 9.079131955209988e-1
      9.193333376539615e-1 9.308971274913326e-1 9.426063718987972e-1 9.544629004696187e-1
      9.664685658105103e-1 9.786252438311035e-1 9.909348340370757e-1 1.003399259826937e0
      1.016020468792578e0 1.028800433023579e0 1.041741149415349e0 1.054844639981156e0
      1.068112952168056e0 1.081548159176825e0 1.095152360285894e0 1.108927681179361e0
      1.122876274279144e0 1.137000319081292e0 1.151302022496541e0 1.165783619195149e0
      1.180447371956060e0 1.195295572020480e0 1.210330539449873e0 1.225554623488493e0
      1.240970202930445e0 1.256579686491375e0 1.272385513184854e0 1.288390152703454e0
      1.304596105804664e0 1.321005904701630e0 1.337622113458810e0 1.354447328392634e0
      1.371484178477162e0 1.388735325754882e0 1.406203465752659e0 1.423891327902900e0
      1.441801675970057e0 1.459937308482451e0 1.478301059169561e0 1.496895797404795e0
      1.515724428653830e0 1.534789894928609e0 1.554095175247023e0 1.573643286098400e0
      1.593437281914835e0 1.613480255548440e0 1.633775338754628e0 1.654325702681435e0
      1.675134558365039e0 1.696205157231477e0 1.717540791604686e0 1.739144795220950e0
      1.761020543749782e0 1.783171455321399e0 1.805600991060804e0 1.828312655628582e0
      1.851309997768537e0 1.874596610862159e0 1.898176133490125e0 1.922052250000821e0
      1.946228691086022e0 1.970709234363842e0 1.995497704968967e0 2.020597976150365e0
      2.046013969876478e0 2.071749657448029e0 2.097809060118567e0 2.124196249722771e0
      2.150915349312704e0 2.177970533802043e0 2.205366030618400e0 2.233106120363898e0
      2.261195137483987e0 2.289637470944746e0 2.318437564918648e0 2.347599919478962e0
      2.377129091302927e0 2.407029694383712e0 2.437306400751383e0 2.467963941202915e0
      2.499007106041367e0 2.530440745824412e0 2.562269772122210e0 2.594499158284879e0
      2.627133940219585e0 2.660179217177391e0 2.693640152550063e0 2.727521974676819e0
      2.761829977661304e0 2.796569522198792e0 2.831746036413782e0 2.867365016708199e0
      2.903432028620172e0 2.939952707693694e0 2.976932760359179e0 3.014377964825082e0
      3.052294171980793e0 3.090687306310812e0 3.129563366820494e0 3.168928427973394e0
      3.208788640640394e0 3.249150233060830e0 3.290019511815625e0 3.331402862812737e0
      3.373306752284961e0 3.415737727800269e0 3.458702419284926e0 3.502207540059374e0
      3.546259887887252e0 3.590866346037541e0 3.636033884360066e0 3.681769560374598e0
      3.728080520373550e0 3.774974000538649e0 3.822457328071583e0 3.870537922338872e0
      3.919223296031204e0 3.968521056337254e0 4.018438906132377e0 4.068984645182167e0
      4.120166171361173e0 4.171991481887004e0 4.224468674569857e0 4.277605949077858e0
      4.331411608218269e0 4.385894059234780e0 4.441061815121226e0 4.496923495951687e0
      4.553487830227453e0 4.610763656240842e0 4.668759923456181e0 4.727485693908236e0
      4.786950143618100e0 4.847162564027029e0 4.908132363448225e0 4.969869068536875e0
      5.032382325778769e0 5.095681902997518e0 5.159777690880857e0 5.224679704526054e0
      5.290398085004767e0 5.356943100947670e0 5.424325150148872e0 5.492554761190660e0
      5.561642595088584e0 5.631599446957229e0 5.702436247697049e0 5.774164065702259e0
      5.846794108590364e0 5.920337724953341e0 5.994806406130852e0 6.070211788005860e0
      6.146565652822675e0 6.223879931028028e0 6.302166703135197e0 6.381438201611578e0
      6.461706812790109e0 6.542985078804572e0 6.625285699549404e0 6.708621534664052e0
      6.793005605542276e0 6.878451097366854e0 6.964971361169701e0 7.052579915918075e0
      7.141290450626910e0 7.231116826497709e0 7.322073079084485e0 7.414173420486728e0
      7.507432241570173e0 7.601864114215369e0 7.697483793594509e0 7.794306220477064e0
      7.892346523564195e0 7.991620021852736e0 8.092142227028782e0 8.193928845891378e0
      8.296995782806839e0 8.401359142193716e0 8.507035231039259e0 8.614040561447366e0
      8.722391853218584e0 8.832106036462726e0 8.943200254244113e0 9.055691865260304e0
      9.169598446554406e0 9.284937796261461e0 9.401727936389550e0 9.519987115635647e0
      9.639733812237127e0 9.760986736858978e0 9.883764835517326e0 1.000808729253992e1
      1.013397353356356e1 1.026144322856956e1 1.039051629495710e1 1.052121290065538e1
      1.065355346727498e1 1.078755867329865e1 1.092324945731248e1 1.106064702127756e1
      1.119977283384275e1 1.134064863369937e1 1.148329643297771e1 1.162773852068665e1
      1.177399746619629e1 1.192209612276438e1 1.207205763110737e1 1.222390542301599e1
      1.237766322501669e1 1.253335506207887e1 1.269100526136878e1 1.285063845605086e1
      1.301227958913650e1 1.317595391738163e1 1.334168701523306e1 1.350950477882447e1
      1.367943343002290e1 1.385149952052576e1 1.402572993600980e1 1.420215190033194e1
      1.438079297978299e1 1.456168108739510e1 1.474484448730306e1 1.493031179916078e1
      1.511811200261310e1 1.530827444182384e1 1.550082883006107e1 1.569580525433966e1
      1.589323418012259e1 1.609314645608123e1 1.629557331891537e1 1.650054639823422e1
      1.670809772149839e1 1.691825971902442e1 1.713106522905206e1 1.734654750287512e1
      1.756474021003737e1 1.778567744359314e1 1.800939372543472e1 1.823592401168633e1
      1.846530369816600e1 1.869756862591650e1 1.893275508680526e1 1.917089982919532e1
      1.941204006368723e1 1.965621346893316e1 1.990345819752453e1 2.015381288195312e1
      2.040731664064777e1 2.066400908408656e1 2.092393032098595e1 2.118712096456810e1
      2.145362213890647e1 2.172347548535177e1 2.199672316903845e1 2.227340788547293e1
      2.255357286720516e1 2.283726189058345e1 2.312451928259491e1 2.341538992779153e1
      2.370991927530329e1 2.400815334594007e1 2.431013873938209e1 2.461592264146148e1
      2.492555283153513e1 2.523907768995011e1 2.555654620560348e1 2.587800798359662e1
      2.620351325298643e1 2.653311287463351e1 2.686685834914925e1 2.720480182494315e1
      2.754699610637074e1 2.789349466198475e1 2.824435163288949e1 2.859962184120041e1
      2.895936079861045e1 2.932362471506350e1 2.969247050753765e1 3.006595580893846e1
      3.044413897710402e1 3.082707910392390e1 3.121483602457189e1 3.160747032685579e1
      3.200504336068422e1 3.240761724765247e1 3.281525489074952e1 3.322801998418635e1
      3.364597702334864e1 3.406919131487417e1 3.449772898685690e1 3.493165699918005e1
      3.537104315397827e1 3.581595610623225e1 3.626646537449602e1 3.672264135175919e1
      3.718455531644643e1 3.765227944355436e1 3.812588681592950e1 3.860545143568742e1
      3.909104823577550e1 3.958275309168185e1 4.008064283329044e1 4.058479525688642e1
      4.109528913731178e1 4.161220424027380e1 4.213562133480910e1 4.266562220590348e1
      4.320228966727142e1 4.374570757429569e1 4.429596083712971e1 4.485313543396543e1
      4.541731842446704e1 4.598859796337472e1 4.656706331427880e1 4.715280486356708e1
      4.774591413454849e1 4.834648380175318e1 4.895460770541355e1 4.957038086612691e1
      5.019389949970225e1 5.082526103219478e1 5.146456411512830e1 5.211190864091027e1
      5.276739575843998e1 5.343112788891296e1 5.410320874182514e1 5.478374333117698e1
      5.547283799188270e1 5.617060039638512e1 5.687713957147935e1 5.759256591534916e1
      5.831699121481613e1 5.905052866280726e1 5.979329287604128e1 6.054539991293748e1