Nh    ONCVPSP-4.0.1  r_core=   1.10128   1.10128   1.10128   1.10128
113.0000     53.0000      220307    zatom,zion,pspd
8      11   3     4   600     0    pspcod,pspxc,lmax,lloc,mmax,r2well
5.99000000  5.00000000  0.00000000    rchrg fchrg qchrg
3     2     2     2     0    nproj
1     1           extension_switch
0                         2.9041420263670E+01 -8.2381184287595E+00  3.1742802648478E+00
1  0.0000000000000E+00  4.0923398003656E-09  2.1836212837911E-09  3.1168943120941E-08
2  1.0000000000000E-02  2.2291599377113E-01  6.7629094254310E-02  4.3386313526184E-02
3  2.0000000000000E-02  4.4332281061728E-01  1.3510753773696E-01  8.5332075219354E-02
4  3.0000000000000E-02  6.5874063698655E-01  2.0228529933417E-01  1.2441974311917E-01
5  4.0000000000000E-02  8.6674811008127E-01  2.6901359178677E-01  1.5927765056862E-01
6  5.0000000000000E-02  1.0650108515875E+00  3.3514550433379E-01  1.8860257330108E-01
7  6.0000000000000E-02  1.2513091670233E+00  4.0053664648323E-01  2.1118182605043E-01
8  7.0000000000000E-02  1.4235646260243E+00  4.6504580383638E-01  2.2591469088972E-01
9  8.0000000000000E-02  1.5798652347937E+00  5.2853560470774E-01  2.3183294833488E-01
10  9.0000000000000E-02  1.7184889086410E+00  5.9087319379541E-01  2.2812024799807E-01
11  1.0000000000000E-01  1.8379249510782E+00  6.5193090650754E-01  2.1413002100911E-01
12  1.1000000000000E-01  1.9368932474786E+00  7.1158693489862E-01  1.8940160456228E-01
13  1.2000000000000E-01  2.0143608869612E+00  7.6972597367556E-01  1.5367422284938E-01
14  1.3000000000000E-01  2.0695559370548E+00  8.2623983255761E-01  1.0689845129477E-01
15  1.4000000000000E-01  2.1019781127689E+00  8.8102799956645E-01  4.9244785132433E-02
16  1.5000000000000E-01  2.1114061057411E+00  9.3399813871359E-01 -1.8891058729391E-02
17  1.6000000000000E-01  2.0979013706891E+00  9.8506650514959E-01 -9.6886454152629E-02
18  1.7000000000000E-01  2.0618082057086E+00  1.0341582612201E+00 -1.8389410000180E-01
19  1.8000000000000E-01  2.0037500099645E+00  1.0812076780793E+00 -2.7884842650706E-01
20  1.9000000000000E-01  1.9246216566050E+00  1.1261582095474E+00 -3.8047635037418E-01
21  2.0000000000000E-01  1.8255779795105E+00  1.1689624277288E+00 -4.8731246620746E-01
22  2.1000000000000E-01  1.7080184386807E+00  1.2095818134631E+00 -5.9771865947977E-01
23  2.2000000000000E-01  1.5735680992225E+00  1.2479863988466E+00 -7.0990801347930E-01
24  2.3000000000000E-01  1.4240551313410E+00  1.2841542637011E+00 -8.2197276282516E-01
25  2.4000000000000E-01  1.2614851115243E+00  1.3180708928098E+00 -9.3191592326296E-01
26  2.5000000000000E-01  1.0880124761728E+00  1.3497284057917E+00 -1.0376861058748E+00
27  2.6000000000000E-01  9.0590954608439E-01  1.3791246764553E+00 -1.1372149081458E+00
28  2.7000000000000E-01  7.1753360130839E-01  1.4062623631377E+00 -1.2284561690935E+00
29  2.8000000000000E-01  5.2529253881682E-01  1.4311478757094E+00 -1.3094262853252E+00
30  2.9000000000000E-01  3.3160968829995E-01  1.4537903084050E+00 -1.3782447134852E+00
31  3.0000000000000E-01  1.3888839247483E-01  1.4742003702671E+00 -1.4331737356182E+00
32  3.1000000000000E-01 -5.0523023771330E-02  1.4923893466188E+00 -1.4726565403290E+00
33  3.2000000000000E-01 -2.3436526730005E-01  1.5083681255130E+00 -1.4953526762336E+00
34  3.3000000000000E-01 -4.1050045655279E-01  1.5221463224682E+00 -1.5001699661264E+00
35  3.4000000000000E-01 -5.7694227596072E-01  1.5337315349894E+00 -1.4862920305525E+00
36  3.5000000000000E-01 -7.3188335393965E-01  1.5431287553957E+00 -1.4532006570734E+00
37  3.6000000000000E-01 -8.7371936753287E-01  1.5503399664197E+00 -1.4006923644162E+00
38  3.7000000000000E-01 -1.0010694432835E+00  1.5553639390176E+00 -1.3288886459038E+00
39  3.8000000000000E-01 -1.1127925012360E+00  1.5581962459827E+00 -1.2382395302125E+00
40  3.9000000000000E-01 -1.2079992750655E+00  1.5588294984885E+00 -1.1295202649954E+00
41  4.0000000000000E-01 -1.2860598339008E+00  1.5572538058023E+00 -1.0038211050665E+00
42  4.1000000000000E-01 -1.3466065279304E+00  1.5534574513519E+00 -8.6253036612110E-01
43  4.2000000000000E-01 -1.3895323777083E+00  1.5474277713307E+00 -7.0731108163685E-01
44  4.3000000000000E-01 -1.4149850235394E+00  1.5391522153348E+00 -5.4007176899214E-01
45  4.4000000000000E-01 -1.4233564438067E+00  1.5286195623806E+00 -3.6293196551591E-01
46  4.5000000000000E-01 -1.4152687371327E+00  1.5158212602523E+00 -1.7818333121189E-01
47  4.6000000000000E-01 -1.3915563406228E+00  1.5007528516790E+00  1.1752772037964E-02
48  4.7000000000000E-01 -1.3532451231843E+00  1.4834154474817E+00  2.0437022836856E-01
49  4.8000000000000E-01 -1.3015288475010E+00  1.4638172046814E+00  3.9712458887166E-01
50  4.9000000000000E-01 -1.2377435355216E+00  1.4419747666858E+00  5.8747988439848E-01
51  5.0000000000000E-01 -1.1633402995934E+00  1.4179146230955E+00  7.7295475284299E-01
52  5.1000000000000E-01 -1.0798572143925E+00  1.3916743483712E+00  9.5116683760541E-01
53  5.2000000000000E-01 -9.8889080377500E-01  1.3633036815034E+00  1.1198744766051E+00
54  5.3000000000000E-01 -8.9206770221943E-01  1.3328654128213E+00  1.2770147898334E+00
55  5.4000000000000E-01 -7.9101702366760E-01  1.3004360490171E+00  1.4207373845198E+00
56  5.5000000000000E-01 -6.8734393263539E-01  1.2661062331665E+00  1.5494330263869E+00
57  5.6000000000000E-01 -5.8260486506199E-01  1.2299809028035E+00  1.6617567685392E+00
58  5.7000000000000E-01 -4.7828479129858E-01  1.1921791757347E+00  1.7566451813116E+00
59  5.8000000000000E-01 -3.7577685281128E-01  1.1528339600508E+00  1.8333274818729E+00
60  5.9000000000000E-01 -2.7636463953971E-01  1.1120912914919E+00  1.8913305165945E+00
61  6.0000000000000E-01 -1.8120730831483E-01  1.0701094077474E+00  1.9304776975568E+00
62  6.1000000000000E-01 -9.1327676092883E-02  1.0270575752558E+00  1.9508821329182E+00
63  6.2000000000000E-01 -7.6033566283835E-03  9.8311468944708E-01  1.9529343157271E+00
64  6.3000000000000E-01  6.9239053010976E-02  9.3846767403791E-01  1.9372848443333E+00
65  6.4000000000000E-01  1.3862678784660E-01  8.9330970885272E-01  1.9048227379154E+00
66  6.5000000000000E-01  2.0014083730172E-01  8.4783831866368E-01  1.8566499816644E+00
67  6.6000000000000E-01  2.5351312713814E-01  8.0225335770389E-01  1.7940529876074E+00
68  6.7000000000000E-01  2.9862115561579E-01  7.5675492583725E-01  1.7184716894109E+00
69  6.8000000000000E-01  3.3548031444881E-01  7.1154125291733E-01  1.6314670039941E+00
70  6.9000000000000E-01  3.6423415532926E-01  6.6680658771367E-01  1.5346873911875E+00
71  7.0000000000000E-01  3.8514288748980E-01  6.2273912702187E-01  1.4298352271625E+00
72  7.1000000000000E-01  3.9857041137347E-01  5.7951901930835E-01  1.3186336803888E+00
73  7.2000000000000E-01  4.0497020839339E-01  5.3731647557850E-01  1.2027947429232E+00
74  7.3000000000000E-01  4.0487041740544E-01  4.9629001819813E-01  1.0839890272669E+00
75  7.4000000000000E-01  3.9885843521009E-01  4.5658489622936E-01  9.6381789191889E-01
76  7.5000000000000E-01  3.8756538132994E-01  4.1833169352988E-01  8.4378840869124E-01
77  7.6000000000000E-01  3.7165076649402E-01  3.8164515344620E-01  7.2529163283745E-01
78  7.7000000000000E-01  3.5178769948831E-01  3.4662324141689E-01  6.0958458337055E-01
79  7.8000000000000E-01  3.2864895786189E-01  3.1334646416159E-01  4.9777628510061E-01
80  7.9000000000000E-01  3.0289423371647E-01  2.8187746130485E-01  3.9081816459106E-01
81  8.0000000000000E-01  2.7515884550823E-01  2.5226088216959E-01  2.8949902725462E-01
82  8.1000000000000E-01  2.4604417928944E-01  2.2452355694237E-01  1.9444476926916E-01
83  8.2000000000000E-01  2.1611008672892E-01  1.9867496729544E-01  1.0612289222009E-01
84  8.3000000000000E-01  1.8586942103047E-01  1.7470801665984E-01  2.4851786110246E-02
85  8.4000000000000E-01  1.5578483384881E-01  1.5260009446794E-01 -4.9185377136809E-02
86  8.5000000000000E-01  1.2626788472726E-01  1.3231442159532E-01 -1.1592244745011E-01
87  8.6000000000000E-01  9.7680427682916E-02  1.1380165569816E-01 -1.7538828701684E-01
88  8.7000000000000E-01  7.0338135582924E-02  9.7001724924866E-02 -2.2768165534975E-01
89  8.8000000000000E-01  4.4515900208257E-02  8.1845846347947E-02 -2.7294395810850E-01
90  8.9000000000000E-01  2.0454702805685E-02  6.8258671191963E-02 -3.1133113731873E-01
91  9.0000000000000E-01 -1.6306149584340E-03  5.6160482315731E-02 -3.4298634146748E-01
92  9.1000000000000E-01 -2.1543437696840E-02  4.5469350252131E-02 -3.6801543146997E-01
93  9.2000000000000E-01 -3.9098290877464E-02  3.6103132244871E-02 -3.8646785665883E-01
94  9.3000000000000E-01 -5.4115790846182E-02  2.7981173996401E-02 -3.9832597726561E-01
95  9.4000000000000E-01 -6.6421101186128E-02  2.1025546125128E-02 -4.0350651936824E-01
96  9.5000000000000E-01 -7.5847656289868E-02  1.5161616509660E-02 -4.0187852760778E-01
97  9.6000000000000E-01 -8.2248230348351E-02  1.0317725666349E-02 -3.9330293260483E-01
98  9.7000000000000E-01 -8.5515775094129E-02  6.4236949860661E-03 -3.7769967576608E-01
99  9.8000000000000E-01 -8.5616823333583E-02  3.4078569417008E-03 -3.5514923644727E-01
100  9.9000000000000E-01 -8.2640678952720E-02  1.1922500661283E-03 -3.2603644590481E-01
101  1.0000000000000E+00 -7.6867813479296E-02 -3.1440247592330E-04 -2.9124487267498E-01
102  1.0100000000000E+00 -6.8848634984972E-02 -1.2250742045708E-03 -2.5237505121887E-01
103  1.0200000000000E+00 -5.9312859509821E-02 -1.6657970077100E-03 -2.1147802591536E-01
104  1.0300000000000E+00 -4.8979668888417E-02 -1.7563866188397E-03 -1.7051927131440E-01
105  1.0400000000000E+00 -3.8519104978044E-02 -1.6061342367132E-03 -1.3128190975594E-01
106  1.0500000000000E+00 -2.8518283150248E-02 -1.3116870230894E-03 -9.5297623483516E-02
107  1.0600000000000E+00 -1.9343946178295E-02 -9.5155821572692E-04 -6.3557171990112E-02
108  1.0700000000000E+00 -1.1503641134236E-02 -5.9243880969003E-04 -3.7269296825839E-02
109  1.0800000000000E+00 -5.4600636260803E-03 -2.8953468088892E-04 -1.7484183316395E-02
110  1.0900000000000E+00 -1.5536408078893E-03 -8.3646928541693E-05 -4.9273963267162E-03
111  1.1000000000000E+00 -4.0610913918488E-05 -2.1849924570134E-06 -1.2763151057388E-04
112  1.1100000000000E+00 -7.2954563226737E-06 -3.9601538405821E-07 -2.2963338340226E-05
113  1.1200000000000E+00  7.1548216037677E-07  3.8733090436370E-08  2.2606078039330E-06
114  1.13  0.  0.  0.
115  1.14  0.  0.  0.
116  1.15  0.  0.  0.
117  1.16  0.  0.  0.
118  1.17  0.  0.  0.
119  1.18  0.  0.  0.
120  1.19  0.  0.  0.
121  1.20  0.  0.  0.
122  1.21  0.  0.  0.
123  1.22  0.  0.  0.
124  1.23  0.  0.  0.
125  1.24  0.  0.  0.
126  1.25  0.  0.  0.
127  1.26  0.  0.  0.
128  1.27  0.  0.  0.
129  1.28  0.  0.  0.
130  1.29  0.  0.  0.
131  1.30  0.  0.  0.
132  1.31  0.  0.  0.
133  1.32  0.  0.  0.
134  1.33  0.  0.  0.
135  1.34  0.  0.  0.
136  1.35  0.  0.  0.
137  1.36  0.  0.  0.
138  1.37  0.  0.  0.
139  1.38  0.  0.  0.
140  1.39  0.  0.  0.
141  1.40  0.  0.  0.
142  1.41  0.  0.  0.
143  1.42  0.  0.  0.
144  1.43  0.  0.  0.
145  1.44  0.  0.  0.
146  1.45  0.  0.  0.
147  1.46  0.  0.  0.
148  1.47  0.  0.  0.
149  1.48  0.  0.  0.
150  1.49  0.  0.  0.
151  1.50  0.  0.  0.
152  1.51  0.  0.  0.
153  1.52  0.  0.  0.
154  1.53  0.  0.  0.
155  1.54  0.  0.  0.
156  1.55  0.  0.  0.
157  1.56  0.  0.  0.
158  1.57  0.  0.  0.
159  1.58  0.  0.  0.
160  1.59  0.  0.  0.
161  1.60  0.  0.  0.
162  1.61  0.  0.  0.
163  1.62  0.  0.  0.
164  1.63  0.  0.  0.
165  1.64  0.  0.  0.
166  1.65  0.  0.  0.
167  1.66  0.  0.  0.
168  1.67  0.  0.  0.
169  1.68  0.  0.  0.
170  1.69  0.  0.  0.
171  1.70  0.  0.  0.
172  1.71  0.  0.  0.
173  1.72  0.  0.  0.
174  1.73  0.  0.  0.
175  1.74  0.  0.  0.
176  1.75  0.  0.  0.
177  1.76  0.  0.  0.
178  1.77  0.  0.  0.
179  1.78  0.  0.  0.
180  1.79  0.  0.  0.
181  1.80  0.  0.  0.
182  1.81  0.  0.  0.
183  1.82  0.  0.  0.
184  1.83  0.  0.  0.
185  1.84  0.  0.  0.
186  1.85  0.  0.  0.
187  1.86  0.  0.  0.
188  1.87  0.  0.  0.
189  1.88  0.  0.  0.
190  1.89  0.  0.  0.
191  1.90  0.  0.  0.
192  1.91  0.  0.  0.
193  1.92  0.  0.  0.
194  1.93  0.  0.  0.
195  1.94  0.  0.  0.
196  1.95  0.  0.  0.
197  1.96  0.  0.  0.
198  1.97  0.  0.  0.
199  1.98  0.  0.  0.
200  1.99  0.  0.  0.
201  2.00  0.  0.  0.
202  2.01  0.  0.  0.
203  2.02  0.  0.  0.
204  2.03  0.  0.  0.
205  2.04  0.  0.  0.
206  2.05  0.  0.  0.
207  2.06  0.  0.  0.
208  2.07  0.  0.  0.
209  2.08  0.  0.  0.
210  2.09  0.  0.  0.
211  2.10  0.  0.  0.
212  2.11  0.  0.  0.
213  2.12  0.  0.  0.
214  2.13  0.  0.  0.
215  2.14  0.  0.  0.
216  2.15  0.  0.  0.
217  2.16  0.  0.  0.
218  2.17  0.  0.  0.
219  2.18  0.  0.  0.
220  2.19  0.  0.  0.
221  2.20  0.  0.  0.
222  2.21  0.  0.  0.
223  2.22  0.  0.  0.
224  2.23  0.  0.  0.
225  2.24  0.  0.  0.
226  2.25  0.  0.  0.
227  2.26  0.  0.  0.
228  2.27  0.  0.  0.
229  2.28  0.  0.  0.
230  2.29  0.  0.  0.
231  2.30  0.  0.  0.
232  2.31  0.  0.  0.
233  2.32  0.  0.  0.
234  2.33  0.  0.  0.
235  2.34  0.  0.  0.
236  2.35  0.  0.  0.
237  2.36  0.  0.  0.
238  2.37  0.  0.  0.
239  2.38  0.  0.  0.
240  2.39  0.  0.  0.
241  2.40  0.  0.  0.
242  2.41  0.  0.  0.
243  2.42  0.  0.  0.
244  2.43  0.  0.  0.
245  2.44  0.  0.  0.
246  2.45  0.  0.  0.
247  2.46  0.  0.  0.
248  2.47  0.  0.  0.
249  2.48  0.  0.  0.
250  2.49  0.  0.  0.
251  2.50  0.  0.  0.
252  2.51  0.  0.  0.
253  2.52  0.  0.  0.
254  2.53  0.  0.  0.
255  2.54  0.  0.  0.
256  2.55  0.  0.  0.
257  2.56  0.  0.  0.
258  2.57  0.  0.  0.
259  2.58  0.  0.  0.
260  2.59  0.  0.  0.
261  2.60  0.  0.  0.
262  2.61  0.  0.  0.
263  2.62  0.  0.  0.
264  2.63  0.  0.  0.
265  2.64  0.  0.  0.
266  2.65  0.  0.  0.
267  2.66  0.  0.  0.
268  2.67  0.  0.  0.
269  2.68  0.  0.  0.
270  2.69  0.  0.  0.
271  2.70  0.  0.  0.
272  2.71  0.  0.  0.
273  2.72  0.  0.  0.
274  2.73  0.  0.  0.
275  2.74  0.  0.  0.
276  2.75  0.  0.  0.
277  2.76  0.  0.  0.
278  2.77  0.  0.  0.
279  2.78  0.  0.  0.
280  2.79  0.  0.  0.
281  2.80  0.  0.  0.
282  2.81  0.  0.  0.
283  2.82  0.  0.  0.
284  2.83  0.  0.  0.
285  2.84  0.  0.  0.
286  2.85  0.  0.  0.
287  2.86  0.  0.  0.
288  2.87  0.  0.  0.
289  2.88  0.  0.  0.
290  2.89  0.  0.  0.
291  2.90  0.  0.  0.
292  2.91  0.  0.  0.
293  2.92  0.  0.  0.
294  2.93  0.  0.  0.
295  2.94  0.  0.  0.
296  2.95  0.  0.  0.
297  2.96  0.  0.  0.
298  2.97  0.  0.  0.
299  2.98  0.  0.  0.
300  2.99  0.  0.  0.
301  3.00  0.  0.  0.
302  3.01  0.  0.  0.
303  3.02  0.  0.  0.
304  3.03  0.  0.  0.
305  3.04  0.  0.  0.
306  3.05  0.  0.  0.
307  3.06  0.  0.  0.
308  3.07  0.  0.  0.
309  3.08  0.  0.  0.
310  3.09  0.  0.  0.
311  3.10  0.  0.  0.
312  3.11  0.  0.  0.
313  3.12  0.  0.  0.
314  3.13  0.  0.  0.
315  3.14  0.  0.  0.
316  3.15  0.  0.  0.
317  3.16  0.  0.  0.
318  3.17  0.  0.  0.
319  3.18  0.  0.  0.
320  3.19  0.  0.  0.
321  3.20  0.  0.  0.
322  3.21  0.  0.  0.
323  3.22  0.  0.  0.
324  3.23  0.  0.  0.
325  3.24  0.  0.  0.
326  3.25  0.  0.  0.
327  3.26  0.  0.  0.
328  3.27  0.  0.  0.
329  3.28  0.  0.  0.
330  3.29  0.  0.  0.
331  3.30  0.  0.  0.
332  3.31  0.  0.  0.
333  3.32  0.  0.  0.
334  3.33  0.  0.  0.
335  3.34  0.  0.  0.
336  3.35  0.  0.  0.
337  3.36  0.  0.  0.
338  3.37  0.  0.  0.
339  3.38  0.  0.  0.
340  3.39  0.  0.  0.
341  3.40  0.  0.  0.
342  3.41  0.  0.  0.
343  3.42  0.  0.  0.
344  3.43  0.  0.  0.
345  3.44  0.  0.  0.
346  3.45  0.  0.  0.
347  3.46  0.  0.  0.
348  3.47  0.  0.  0.
349  3.48  0.  0.  0.
350  3.49  0.  0.  0.
351  3.50  0.  0.  0.
352  3.51  0.  0.  0.
353  3.52  0.  0.  0.
354  3.53  0.  0.  0.
355  3.54  0.  0.  0.
356  3.55  0.  0.  0.
357  3.56  0.  0.  0.
358  3.57  0.  0.  0.
359  3.58  0.  0.  0.
360  3.59  0.  0.  0.
361  3.60  0.  0.  0.
362  3.61  0.  0.  0.
363  3.62  0.  0.  0.
364  3.63  0.  0.  0.
365  3.64  0.  0.  0.
366  3.65  0.  0.  0.
367  3.66  0.  0.  0.
368  3.67  0.  0.  0.
369  3.68  0.  0.  0.
370  3.69  0.  0.  0.
371  3.70  0.  0.  0.
372  3.71  0.  0.  0.
373  3.72  0.  0.  0.
374  3.73  0.  0.  0.
375  3.74  0.  0.  0.
376  3.75  0.  0.  0.
377  3.76  0.  0.  0.
378  3.77  0.  0.  0.
379  3.78  0.  0.  0.
380  3.79  0.  0.  0.
381  3.80  0.  0.  0.
382  3.81  0.  0.  0.
383  3.82  0.  0.  0.
384  3.83  0.  0.  0.
385  3.84  0.  0.  0.
386  3.85  0.  0.  0.
387  3.86  0.  0.  0.
388  3.87  0.  0.  0.
389  3.88  0.  0.  0.
390  3.89  0.  0.  0.
391  3.90  0.  0.  0.
392  3.91  0.  0.  0.
393  3.92  0.  0.  0.
394  3.93  0.  0.  0.
395  3.94  0.  0.  0.
396  3.95  0.  0.  0.
397  3.96  0.  0.  0.
398  3.97  0.  0.  0.
399  3.98  0.  0.  0.
400  3.99  0.  0.  0.
401  4.00  0.  0.  0.
402  4.01  0.  0.  0.
403  4.02  0.  0.  0.
404  4.03  0.  0.  0.
405  4.04  0.  0.  0.
406  4.05  0.  0.  0.
407  4.06  0.  0.  0.
408  4.07  0.  0.  0.
409  4.08  0.  0.  0.
410  4.09  0.  0.  0.
411  4.10  0.  0.  0.
412  4.11  0.  0.  0.
413  4.12  0.  0.  0.
414  4.13  0.  0.  0.
415  4.14  0.  0.  0.
416  4.15  0.  0.  0.
417  4.16  0.  0.  0.
418  4.17  0.  0.  0.
419  4.18  0.  0.  0.
420  4.19  0.  0.  0.
421  4.20  0.  0.  0.
422  4.21  0.  0.  0.
423  4.22  0.  0.  0.
424  4.23  0.  0.  0.
425  4.24  0.  0.  0.
426  4.25  0.  0.  0.
427  4.26  0.  0.  0.
428  4.27  0.  0.  0.
429  4.28  0.  0.  0.
430  4.29  0.  0.  0.
431  4.30  0.  0.  0.
432  4.31  0.  0.  0.
433  4.32  0.  0.  0.
434  4.33  0.  0.  0.
435  4.34  0.  0.  0.
436  4.35  0.  0.  0.
437  4.36  0.  0.  0.
438  4.37  0.  0.  0.
439  4.38  0.  0.  0.
440  4.39  0.  0.  0.
441  4.40  0.  0.  0.
442  4.41  0.  0.  0.
443  4.42  0.  0.  0.
444  4.43  0.  0.  0.
445  4.44  0.  0.  0.
446  4.45  0.  0.  0.
447  4.46  0.  0.  0.
448  4.47  0.  0.  0.
449  4.48  0.  0.  0.
450  4.49  0.  0.  0.
451  4.50  0.  0.  0.
452  4.51  0.  0.  0.
453  4.52  0.  0.  0.
454  4.53  0.  0.  0.
455  4.54  0.  0.  0.
456  4.55  0.  0.  0.
457  4.56  0.  0.  0.
458  4.57  0.  0.  0.
459  4.58  0.  0.  0.
460  4.59  0.  0.  0.
461  4.60  0.  0.  0.
462  4.61  0.  0.  0.
463  4.62  0.  0.  0.
464  4.63  0.  0.  0.
465  4.64  0.  0.  0.
466  4.65  0.  0.  0.
467  4.66  0.  0.  0.
468  4.67  0.  0.  0.
469  4.68  0.  0.  0.
470  4.69  0.  0.  0.
471  4.70  0.  0.  0.
472  4.71  0.  0.  0.
473  4.72  0.  0.  0.
474  4.73  0.  0.  0.
475  4.74  0.  0.  0.
476  4.75  0.  0.  0.
477  4.76  0.  0.  0.
478  4.77  0.  0.  0.
479  4.78  0.  0.  0.
480  4.79  0.  0.  0.
481  4.80  0.  0.  0.
482  4.81  0.  0.  0.
483  4.82  0.  0.  0.
484  4.83  0.  0.  0.
485  4.84  0.  0.  0.
486  4.85  0.  0.  0.
487  4.86  0.  0.  0.
488  4.87  0.  0.  0.
489  4.88  0.  0.  0.
490  4.89  0.  0.  0.
491  4.90  0.  0.  0.
492  4.91  0.  0.  0.
493  4.92  0.  0.  0.
494  4.93  0.  0.  0.
495  4.94  0.  0.  0.
496  4.95  0.  0.  0.
497  4.96  0.  0.  0.
498  4.97  0.  0.  0.
499  4.98  0.  0.  0.
500  4.99  0.  0.  0.
501  5.00  0.  0.  0.
502  5.01  0.  0.  0.
503  5.02  0.  0.  0.
504  5.03  0.  0.  0.
505  5.04  0.  0.  0.
506  5.05  0.  0.  0.
507  5.06  0.  0.  0.
508  5.07  0.  0.  0.
509  5.08  0.  0.  0.
510  5.09  0.  0.  0.
511  5.10  0.  0.  0.
512  5.11  0.  0.  0.
513  5.12  0.  0.  0.
514  5.13  0.  0.  0.
515  5.14  0.  0.  0.
516  5.15  0.  0.  0.
517  5.16  0.  0.  0.
518  5.17  0.  0.  0.
519  5.18  0.  0.  0.
520  5.19  0.  0.  0.
521  5.20  0.  0.  0.
522  5.21  0.  0.  0.
523  5.22  0.  0.  0.
524  5.23  0.  0.  0.
525  5.24  0.  0.  0.
526  5.25  0.  0.  0.
527  5.26  0.  0.  0.
528  5.27  0.  0.  0.
529  5.28  0.  0.  0.
530  5.29  0.  0.  0.
531  5.30  0.  0.  0.
532  5.31  0.  0.  0.
533  5.32  0.  0.  0.
534  5.33  0.  0.  0.
535  5.34  0.  0.  0.
536  5.35  0.  0.  0.
537  5.36  0.  0.  0.
538  5.37  0.  0.  0.
539  5.38  0.  0.  0.
540  5.39  0.  0.  0.
541  5.40  0.  0.  0.
542  5.41  0.  0.  0.
543  5.42  0.  0.  0.
544  5.43  0.  0.  0.
545  5.44  0.  0.  0.
546  5.45  0.  0.  0.
547  5.46  0.  0.  0.
548  5.47  0.  0.  0.
549  5.48  0.  0.  0.
550  5.49  0.  0.  0.
551  5.50  0.  0.  0.
552  5.51  0.  0.  0.
553  5.52  0.  0.  0.
554  5.53  0.  0.  0.
555  5.54  0.  0.  0.
556  5.55  0.  0.  0.
557  5.56  0.  0.  0.
558  5.57  0.  0.  0.
559  5.58  0.  0.  0.
560  5.59  0.  0.  0.
561  5.60  0.  0.  0.
562  5.61  0.  0.  0.
563  5.62  0.  0.  0.
564  5.63  0.  0.  0.
565  5.64  0.  0.  0.
566  5.65  0.  0.  0.
567  5.66  0.  0.  0.
568  5.67  0.  0.  0.
569  5.68  0.  0.  0.
570  5.69  0.  0.  0.
571  5.70  0.  0.  0.
572  5.71  0.  0.  0.
573  5.72  0.  0.  0.
574  5.73  0.  0.  0.
575  5.74  0.  0.  0.
576  5.75  0.  0.  0.
577  5.76  0.  0.  0.
578  5.77  0.  0.  0.
579  5.78  0.  0.  0.
580  5.79  0.  0.  0.
581  5.80  0.  0.  0.
582  5.81  0.  0.  0.
583  5.82  0.  0.  0.
584  5.83  0.  0.  0.
585  5.84  0.  0.  0.
586  5.85  0.  0.  0.
587  5.86  0.  0.  0.
588  5.87  0.  0.  0.
589  5.88  0.  0.  0.
590  5.89  0.  0.  0.
591  5.90  0.  0.  0.
592  5.91  0.  0.  0.
593  5.92  0.  0.  0.
594  5.93  0.  0.  0.
595  5.94  0.  0.  0.
596  5.95  0.  0.  0.
597  5.96  0.  0.  0.
598  5.97  0.  0.  0.
599  5.98  0.  0.  0.
600  5.99  0.  0.  0.
1                         9.9498272983520E+00 -6.2981716260978E+00
1  0.0000000000000E+00  6.0503449805793E-08 -5.9176984423814E-09
2  1.0000000000000E-02  8.5873542172968E-03  1.5216249592296E-03
3  2.0000000000000E-02  3.4209100211238E-02  6.0872199566708E-03
4  3.0000000000000E-02  7.6446482302919E-02  1.3698793990475E-02
5  4.0000000000000E-02  1.3460885441210E-01  2.4359194347631E-02
6  5.0000000000000E-02  2.0774448071497E-01  3.8071367198904E-02
7  6.0000000000000E-02  2.9465541955472E-01  5.4837346506186E-02
8  7.0000000000000E-02  3.9391625783590E-01  7.4656994749282E-02
9  8.0000000000000E-02  5.0389640263062E-01  9.7526524896786E-02
10  9.0000000000000E-02  6.2278558061960E-01  1.2343683838510E-01
11  1.0000000000000E-01  7.4862214515165E-01  1.5237171852474E-01
12  1.1000000000000E-01  8.7932374592793E-01  1.8430592263096E-01
13  1.2000000000000E-01  1.0127198783219E+00  2.1920321919776E-01
14  1.3000000000000E-01  1.1465857987630E+00  2.5701441853848E-01
15  1.4000000000000E-01  1.2786772699706E+00  2.9767544645737E-01
16  1.5000000000000E-01  1.4067655855456E+00  3.4110551066790E-01
17  1.6000000000000E-01  1.5286723178100E+00  3.8720540882817E-01
18  1.7000000000000E-01  1.6423032360083E+00  4.3585602523102E-01
19  1.8000000000000E-01  1.7456808540833E+00  4.8691706039848E-01
20  1.9000000000000E-01  1.8369750881294E+00  5.4022603413310E-01
21  2.0000000000000E-01  1.9145315330610E+00  5.9559759804032E-01
22  2.1000000000000E-01  1.9768969056436E+00  6.5282318823645E-01
23  2.2000000000000E-01  2.0228412463012E+00  7.1167104299482E-01
24  2.3000000000000E-01  2.0513765243859E+00  7.7188660356633E-01
25  2.4000000000000E-01  2.0617713500835E+00  8.3319330946231E-01
26  2.5000000000000E-01  2.0535615599436E+00  8.9529379223541E-01
27  2.6000000000000E-01  2.0265565111371E+00  9.5787146437574E-01
28  2.7000000000000E-01  1.9808409908564E+00  1.0205924924921E+00
29  2.8000000000000E-01  1.9167727206005E+00  1.0831081366150E+00
30  2.9000000000000E-01  1.8349755091706E+00  1.1450574303750E+00
31  3.0000000000000E-01  1.7363281817680E+00  1.2060701701170E+00
32  3.1000000000000E-01  1.6219494843193E+00  1.2657701748280E+00
33  3.2000000000000E-01  1.4931792307692E+00  1.3237787732106E+00
34  3.3000000000000E-01  1.3515560253031E+00  1.3797184694276E+00
35  3.4000000000000E-01  1.1987919500974E+00  1.4332167350700E+00
36  3.5000000000000E-01  1.0367446611036E+00  1.4839098718375E+00
37  3.6000000000000E-01  8.6738737854933E-01  1.5314468873354E+00
38  3.7000000000000E-01  6.9277729439228E-01  1.5754933253120E+00
39  3.8000000000000E-01  5.1502294514797E-01  1.6157349916284E+00
40  3.9000000000000E-01  3.3625111477473E-01  1.6518815182535E+00
41  4.0000000000000E-01  1.5857383824328E-01  1.6836697096116E+00
42  4.1000000000000E-01 -1.5943928132123E-02  1.7108666186249E+00
43  4.2000000000000E-01 -1.8531541855348E-01  1.7332723037550E+00
44  4.3000000000000E-01 -3.4766142601941E-01  1.7507222231606E+00
45  4.4000000000000E-01 -5.0123743634223E-01  1.7630892276888E+00
46  4.5000000000000E-01 -6.4445808147250E-01  1.7702851206785E+00
47  4.6000000000000E-01 -7.7591851828884E-01  1.7722617593808E+00
48  4.7000000000000E-01 -8.9441239891571E-01  1.7690116800510E+00
49  4.8000000000000E-01 -9.9894616468264E-01  1.7605682363179E+00
50  4.9000000000000E-01 -1.0887494667228E+00  1.7470052481388E+00
51  5.0000000000000E-01 -1.1632815905087E+00  1.7284361663731E+00
52  5.1000000000000E-01 -1.2222338378390E+00  1.7050127655998E+00
53  5.2000000000000E-01 -1.2655278963742E+00  1.6769233851363E+00
54  5.3000000000000E-01 -1.2933103022117E+00  1.6443907451505E+00
55  5.4000000000000E-01 -1.3059431736565E+00  1.6076693711740E+00
56  5.5000000000000E-01 -1.3039914627912E+00  1.5670426661024E+00
57  5.6000000000000E-01 -1.2882070342975E+00  1.5228196738229E+00
58  5.7000000000000E-01 -1.2595099369531E+00  1.4753315828375E+00
59  5.8000000000000E-01 -1.2189672812058E+00  1.4249280216007E+00
60  5.9000000000000E-01 -1.1677701752735E+00  1.3719731997002E+00
61  6.0000000000000E-01 -1.1072092015934E+00  1.3168419504611E+00
62  6.1000000000000E-01 -1.0386489346190E+00  1.2599157310212E+00
63  6.2000000000000E-01 -9.6350200965174E-01  1.2015786354294E+00
64  6.3000000000000E-01 -8.8320325052878E-01  1.1422134748789E+00
65  6.4000000000000E-01 -7.9918435174951E-01  1.0821979768538E+00
66  6.5000000000000E-01 -7.1284958841245E-01  1.0219011517983E+00
67  6.6000000000000E-01 -6.2555299577485E-01  9.6167987199604E-01
68  6.7000000000000E-01 -5.3857742016033E-01  9.0187570276825E-01
69  6.8000000000000E-01 -4.5311579532682E-01  8.4281202095517E-01
70  6.9000000000000E-01 -3.7025494441518E-01  7.8479145006877E-01
71  7.0000000000000E-01 -2.9096214850519E-01  7.2809363560069E-01
72  7.1000000000000E-01 -2.1607465995711E-01  6.7297337787268E-01
73  7.2000000000000E-01 -1.4629227353201E-01  6.1965913365096E-01
74  7.3000000000000E-01 -8.2173002172483E-02  5.6835189163819E-01
75  7.4000000000000E-01 -2.4131838689030E-02  5.1922442102736E-01
76  7.5000000000000E-01  2.7557479223627E-02  4.7242088666861E-01
77  7.6000000000000E-01  7.2757843988262E-02  4.2805681916724E-01
78  7.7000000000000E-01  1.1146149310331E-01  3.8621942349599E-01
79  7.8000000000000E-01  1.4378031544577E-01  3.4696820554959E-01
80  7.9000000000000E-01  1.6993404581241E-01  3.1033589256190E-01
81  8.0000000000000E-01  1.9023668355506E-01  2.7632962050037E-01
82  8.1000000000000E-01  2.0508150317129E-01  2.4493235948344E-01
83  8.2000000000000E-01  2.1492504956883E-01  2.1610454695553E-01
84  8.3000000000000E-01  2.2027052843547E-01  1.8978589780284E-01
85  8.4000000000000E-01  2.2165101292400E-01  1.6589736078977E-01
86  8.5000000000000E-01  2.1961289210070E-01  1.4434319161065E-01
87  8.6000000000000E-01  2.1469998487235E-01  1.2501311444305E-01
88  8.7000000000000E-01  2.0743873611875E-01  1.0778454610116E-01
89  8.8000000000000E-01  1.9832490036020E-01  9.2524859655187E-02
90  8.9000000000000E-01  1.8781210342077E-01  7.9093667630640E-02
91  9.0000000000000E-01  1.7630265522404E-01  6.7345108547836E-02
92  9.1000000000000E-01  1.6414096812504E-01  5.7130124522397E-02
93  9.2000000000000E-01  1.5160991610260E-01  4.8298721834243E-02
94  9.3000000000000E-01  1.3893045174937E-01  4.0702210699138E-02
95  9.4000000000000E-01  1.2626478129629E-01  3.4195424859586E-02
96  9.5000000000000E-01  1.1372338381650E-01  2.8638925972132E-02
97  9.6000000000000E-01  1.0137615009579E-01  2.3901202034901E-02
98  9.7000000000000E-01  8.9267910153276E-02  1.9860873208393E-02
99  9.8000000000000E-01  7.7438616632051E-02  1.6408922282450E-02
100  9.9000000000000E-01  6.5948463637183E-02  1.3450971444228E-02
101  1.0000000000000E+00  5.4908129026774E-02  1.0909621783077E-02
102  1.0100000000000E+00  4.4508750718225E-02  8.7263893244511E-03
103  1.0200000000000E+00  3.4974474328568E-02  6.8567650370128E-03
104  1.0300000000000E+00  2.6481231479619E-02  5.2630274297803E-03
105  1.0400000000000E+00  1.9149666945730E-02  3.9138780469443E-03
106  1.0500000000000E+00  1.3042152409834E-02  2.7830746833895E-03
107  1.0600000000000E+00  8.1379013580935E-03  1.8392438356679E-03
108  1.0700000000000E+00  4.4484136307118E-03  1.0798836017939E-03
109  1.0800000000000E+00  1.9364952331370E-03  5.1232987587780E-04
110  1.0900000000000E+00  5.0356804130815E-04  1.4740924475875E-04
111  1.1000000000000E+00  1.1868587910699E-05  3.9580960159824E-06
112  1.1100000000000E+00  2.1599558340215E-06  7.0285273204071E-07
113  1.1200000000000E+00 -2.2125240450454E-07 -6.8363217855673E-08
114  1.13  0.  0.
115  1.14  0.  0.
116  1.15  0.  0.
117  1.16  0.  0.
118  1.17  0.  0.
119  1.18  0.  0.
120  1.19  0.  0.
121  1.20  0.  0.
122  1.21  0.  0.
123  1.22  0.  0.
124  1.23  0.  0.
125  1.24  0.  0.
126  1.25  0.  0.
127  1.26  0.  0.
128  1.27  0.  0.
129  1.28  0.  0.
130  1.29  0.  0.
131  1.30  0.  0.
132  1.31  0.  0.
133  1.32  0.  0.
134  1.33  0.  0.
135  1.34  0.  0.
136  1.35  0.  0.
137  1.36  0.  0.
138  1.37  0.  0.
139  1.38  0.  0.
140  1.39  0.  0.
141  1.40  0.  0.
142  1.41  0.  0.
143  1.42  0.  0.
144  1.43  0.  0.
145  1.44  0.  0.
146  1.45  0.  0.
147  1.46  0.  0.
148  1.47  0.  0.
149  1.48  0.  0.
150  1.49  0.  0.
151  1.50  0.  0.
152  1.51  0.  0.
153  1.52  0.  0.
154  1.53  0.  0.
155  1.54  0.  0.
156  1.55  0.  0.
157  1.56  0.  0.
158  1.57  0.  0.
159  1.58  0.  0.
160  1.59  0.  0.
161  1.60  0.  0.
162  1.61  0.  0.
163  1.62  0.  0.
164  1.63  0.  0.
165  1.64  0.  0.
166  1.65  0.  0.
167  1.66  0.  0.
168  1.67  0.  0.
169  1.68  0.  0.
170  1.69  0.  0.
171  1.70  0.  0.
172  1.71  0.  0.
173  1.72  0.  0.
174  1.73  0.  0.
175  1.74  0.  0.
176  1.75  0.  0.
177  1.76  0.  0.
178  1.77  0.  0.
179  1.78  0.  0.
180  1.79  0.  0.
181  1.80  0.  0.
182  1.81  0.  0.
183  1.82  0.  0.
184  1.83  0.  0.
185  1.84  0.  0.
186  1.85  0.  0.
187  1.86  0.  0.
188  1.87  0.  0.
189  1.88  0.  0.
190  1.89  0.  0.
191  1.90  0.  0.
192  1.91  0.  0.
193  1.92  0.  0.
194  1.93  0.  0.
195  1.94  0.  0.
196  1.95  0.  0.
197  1.96  0.  0.