Nh    ONCVPSP-4.0.1  r_core=   1.10128   1.10128   1.10128   1.10128
113.0000     53.0000      230613    zatom,zion,pspd
8      11   3     4   600     0    pspcod,pspxc,lmax,lloc,mmax,r2well
5.99000000  5.00000000  0.00000000    rchrg fchrg qchrg
3     3     3     2    nproj
3     1           extension_switch
3     4     3    nprojso
0                         2.7038592924853E+01 -7.9560880075357E+00  2.9072164268229E+00
1  0.0000000000000E+00  2.6863347102335E-09  2.1369600533561E-09  2.9432527637319E-08
2  1.0000000000000E-02  2.2083866031117E-01  6.6030486253923E-02  5.0766623378112E-02
3  2.0000000000000E-02  4.3924319510725E-01  1.3192035532138E-01  1.0001559503517E-01
4  3.0000000000000E-02  6.5280761474732E-01  1.9752954349087E-01  1.4625311239225E-01
5  4.0000000000000E-02  8.5918193450466E-01  2.6271909880388E-01  1.8803291263423E-01
6  5.0000000000000E-02  1.0560995087044E+00  3.2735174832225E-01  2.2397963732161E-01
7  6.0000000000000E-02  1.2414035596559E+00  3.9129247737095E-01  2.5281168622983E-01
8  7.0000000000000E-02  1.4130726282917E+00  4.5440912202636E-01  2.7336335137016E-01
9  8.0000000000000E-02  1.5692446707398E+00  5.1657297398286E-01  2.8460599271422E-01
10  9.0000000000000E-02  1.7082395232760E+00  5.7765939449420E-01  2.8566798489730E-01
11  1.0000000000000E-01  1.8285794581520E+00  6.3754843148917E-01  2.7585313179685E-01
12  1.1000000000000E-01  1.9290075556673E+00  6.9612543135686E-01  2.5465721627636E-01
13  1.2000000000000E-01  2.0085036245320E+00  7.5328163444293E-01  2.2178232851474E-01
14  1.3000000000000E-01  2.0662974140129E+00  8.0891474114955E-01  1.7714860108227E-01
15  1.4000000000000E-01  2.1018788783907E+00  8.6292943383472E-01  1.2090297489717E-01
16  1.5000000000000E-01  2.1150052775640E+00  9.1523783858840E-01  5.3424629636100E-02
17  1.6000000000000E-01  2.1057049276634E+00  9.6575991052990E-01 -2.4673263227946E-02
18  1.7000000000000E-01  2.0742774525036E+00  1.0144237265969E+00 -1.1254576576490E-01
19  1.8000000000000E-01  2.0212904305089E+00  1.0611656709251E+00 -2.0912262091879E-01
20  1.9000000000000E-01  1.9475723820298E+00  1.1059304998530E+00 -3.1311909194160E-01
21  2.0000000000000E-01  1.8542020980118E+00  1.1486712762971E+00 -4.2305127563256E-01
22  2.1000000000000E-01  1.7424943718116E+00  1.1893491666594E+00 -5.3725586979993E-01
23  2.2000000000000E-01  1.6139822602823E+00  1.2279330974473E+00 -6.5391426390741E-01
24  2.3000000000000E-01  1.4703960665711E+00  1.2643992732664E+00 -7.7108070362578E-01
25  2.4000000000000E-01  1.3136393036556E+00  1.2987305626297E+00 -8.8671415883250E-01
26  2.5000000000000E-01  1.1457619626468E+00  1.3309157629290E+00 -9.9871340476176E-01
27  2.6000000000000E-01  9.6893147136162E-01  1.3609487607336E+00 -1.1049547119321E+00
28  2.7000000000000E-01  7.8540178468753E-01  1.3888276081273E+00 -1.2033314366559E+00
29  2.8000000000000E-01  5.9748109695086E-01  1.4145535398615E+00 -1.2917947146696E+00
30  2.9000000000000E-01  4.0749870613011E-01  1.4381299595065E+00 -1.3683943896890E+00
31  3.0000000000000E-01  2.1777158881191E-01  1.4595614253690E+00 -1.4313192599248E+00
32  3.1000000000000E-01  3.0571262018118E-02  1.4788526685574E+00 -1.4789357015732E+00
33  3.2000000000000E-01 -1.5190848746918E-01  1.4960076761387E+00 -1.5098237309642E+00
34  3.3000000000000E-01 -3.2758243444632E-01  1.5110288717488E+00 -1.5228095974620E+00
35  3.4000000000000E-01 -4.9450275766618E-01  1.5239164243046E+00 -1.5169940574305E+00
36  3.5000000000000E-01 -6.5088537900173E-01  1.5346677126091E+00 -1.4917755646460E+00
37  3.6000000000000E-01 -7.9513333298434E-01  1.5432769697361E+00 -1.4468677225332E+00
38  3.7000000000000E-01 -9.2585675953797E-01  1.5497351262230E+00 -1.3823104756277E+00
39  3.8000000000000E-01 -1.0418891818991E+00  1.5540298654328E+00 -1.2984746679992E+00
40  3.9000000000000E-01 -1.1422998090513E+00  1.5561458981698E+00 -1.1960597605454E+00
41  4.0000000000000E-01 -1.2264016854777E+00  1.5560654569268E+00 -1.0760846720834E+00
42  4.1000000000000E-01 -1.2937555984149E+00  1.5537690032574E+00 -9.3987188561401E-01
43  4.2000000000000E-01 -1.3441697417397E+00  1.5492361349197E+00 -7.8902513545042E-01
44  4.3000000000000E-01 -1.3776952237412E+00  1.5424466728740E+00 -6.2540115753976E-01
45  4.4000000000000E-01 -1.3946175909925E+00  1.5333819021627E+00 -4.5107613896398E-01
46  4.5000000000000E-01 -1.3954446201124E+00  1.5220259353608E+00 -2.6830763841569E-01
47  4.6000000000000E-01 -1.3808907013797E+00  1.5083671628467E+00 -7.9492863173674E-02
48  4.7000000000000E-01 -1.3518582011608E+00  1.4923997507611E+00  1.1287572372014E-01
49  4.8000000000000E-01 -1.3094162424958E+00  1.4741251453014E+00  3.0625643229769E-01
50  4.9000000000000E-01 -1.2547773838682E+00  1.4535535410169E+00  4.9810494631469E-01
51  5.0000000000000E-01 -1.1892727044515E+00  1.4307052710509E+00  6.8592043126528E-01
52  5.1000000000000E-01 -1.1143258196873E+00  1.4056120787999E+00  8.6729011471768E-01
53  5.2000000000000E-01 -1.0314263539793E+00  1.3783182331642E+00  1.0399313614351E+00
54  5.3000000000000E-01 -9.4210338806841E-01  1.3488814533472E+00  1.2017303488827E+00
55  5.4000000000000E-01 -8.4789937807129E-01  1.3173736138812E+00  1.3507765542117E+00
56  5.5000000000000E-01 -7.5034501234893E-01  1.2838812060525E+00  1.4853923876861E+00
57  5.6000000000000E-01 -6.5093543264603E-01  1.2485055379701E+00  1.6041574453452E+00
58  5.7000000000000E-01 -5.5110819885721E-01  1.2113626619804E+00  1.7059270007024E+00
59  5.8000000000000E-01 -4.5222332395847E-01  1.1725830247521E+00  1.7898445066285E+00
60  5.9000000000000E-01 -3.5554564878944E-01  1.1323108419508E+00  1.8553480294744E+00
61  6.0000000000000E-01 -2.6222976714920E-01  1.0907032057860E+00  1.9021706834590E+00
62  6.1000000000000E-01 -1.7330765166283E-01  1.0479289396842E+00  1.9303352703506E+00
63  6.2000000000000E-01 -8.9679071539148E-02  1.0041672197582E+00  1.9401434540391E+00
64  6.3000000000000E-01 -1.2104835950671E-02  9.5960598749802E-01  1.9321599089688E+00
65  6.4000000000000E-01  5.8797157617303E-02  9.1444018211041E-01  1.9071919736182E+00
66  6.5000000000000E-01  1.2255314123602E-01  8.6886982413457E-01  1.8662654140632E+00
67  6.6000000000000E-01  1.7883207790095E-01  8.2309798434317E-01  1.8105969578027E+00
68  6.7000000000000E-01  2.2744180494253E-01  7.7732867351802E-01  1.7415642948027E+00
69  6.8000000000000E-01  2.6832291430446E-01  7.3176468951043E-01  1.6606742621890E+00
70  6.9000000000000E-01  3.0154059580639E-01  6.8660545812737E-01  1.5695299327655E+00
71  7.0000000000000E-01  3.2727469596203E-01  6.4204490390845E-01  1.4697973175494E+00
72  7.1000000000000E-01  3.4580826677266E-01  5.9826938587182E-01  1.3631723710387E+00
73  7.2000000000000E-01  3.5751489642732E-01  5.5545573190476E-01  1.2513489572431E+00
74  7.3000000000000E-01  3.6284512728273E-01  5.1376940374987E-01  1.1359883968342E+00
75  7.4000000000000E-01  3.6231227606057E-01  4.7336282256870E-01  1.0186911729934E+00
76  7.5000000000000E-01  3.5647797698355E-01  4.3437388291219E-01  9.0097132715415E-01
77  7.6000000000000E-01  3.4593777052127E-01  3.9692468062646E-01  7.8423402675205E-01
78  7.7000000000000E-01  3.3130705830390E-01  3.6112047777854E-01  6.6975673555948E-01
79  7.8000000000000E-01  3.1320773816136E-01  3.2704892507460E-01  5.5867436267677E-01
80  7.9000000000000E-01  2.9225582153478E-01  2.9477955940139E-01  4.5196870750706E-01
81  8.0000000000000E-01  2.6905031785033E-01  2.6436359095640E-01  3.5046245296497E-01
82  8.1000000000000E-01  2.4416364582669E-01  2.3583399081798E-01  2.5481788495298E-01
83  8.2000000000000E-01  2.1813379891526E-01  2.0920588558585E-01  1.6554042925299E-01
84  8.3000000000000E-01  1.9145844982326E-01  1.8447726071619E-01  8.2986993334532E-02
85  8.4000000000000E-01  1.6459112591090E-01  1.6162996818075E-01  7.3789755681492E-03
86  8.5000000000000E-01  1.3793952169836E-01  1.4063102688185E-01 -6.1180346967294E-02
87  8.6000000000000E-01  1.1186593525038E-01  1.2143419562976E-01 -1.2268452364360E-01
88  8.7000000000000E-01  8.6689720335633E-02  1.0398178820951E-01 -1.7719941937733E-01
89  8.8000000000000E-01  6.2691534546585E-02  8.8206687907156E-02 -2.2483643986655E-01
90  8.9000000000000E-01  4.0119033665471E-02  7.4034504615646E-02 -2.6572475322011E-01
91  9.0000000000000E-01  1.9193513235532E-02  6.1385801095119E-02 -2.9998412778694E-01
92  9.1000000000000E-01  1.1682843396751E-04  5.0178295934711E-02 -3.2770042141670E-01
93  9.2000000000000E-01 -1.6922268029078E-02  4.0328929083330E-02 -3.4890623261528E-01
94  9.3000000000000E-01 -3.1743444000921E-02  3.1755651333163E-02 -3.6356976266531E-01
95  9.4000000000000E-01 -4.4173072806152E-02  2.4378771719653E-02 -3.7159554285063E-01
96  9.5000000000000E-01 -5.4047056380342E-02  1.8121666327871E-02 -3.7284135520336E-01
97  9.6000000000000E-01 -6.1220042906850E-02  1.2910618354828E-02 -3.6715642131155E-01
98  9.7000000000000E-01 -6.5583204970721E-02  8.6735223844167E-03 -3.5444675368074E-01
99  9.8000000000000E-01 -6.7093079530243E-02  5.3371455731648E-03 -3.3477446052606E-01
100  9.9000000000000E-01 -6.5814350522565E-02  2.8225927107568E-03 -3.0849882723421E-01
101  1.0000000000000E+00 -6.1979640579439E-02  1.0385974497841E-03 -2.7646740753861E-01
102  1.0100000000000E+00 -5.6058756996818E-02 -1.2656536959575E-04 -2.4023117562758E-01
103  1.0200000000000E+00 -4.8681177945977E-02 -7.9706171806569E-04 -2.0178662326344E-01
104  1.0300000000000E+00 -4.0471486060631E-02 -1.0912129379079E-03 -1.6305285786991E-01
105  1.0400000000000E+00 -3.2015310332692E-02 -1.1172887225158E-03 -1.2577656589007E-01
106  1.0500000000000E+00 -2.3829157772344E-02 -9.7149061244530E-04 -9.1464457403658E-02
107  1.0600000000000E+00 -1.6238703136494E-02 -7.3317324307447E-04 -6.1102734648882E-02
108  1.0700000000000E+00 -9.6960539831505E-03 -4.6865979536029E-04 -3.5885520661498E-02
109  1.0800000000000E+00 -4.6187651261813E-03 -2.3321456474080E-04 -1.6860110766644E-02
110  1.0900000000000E+00 -1.3185442215210E-03 -6.8198889885240E-05 -4.7583313268368E-03
111  1.1000000000000E+00 -3.4636028512268E-05 -1.8020510825381E-06 -1.2356738160955E-04
112  1.1100000000000E+00 -6.2031961932265E-06 -3.2496114234381E-07 -2.2191311978568E-05
113  1.1200000000000E+00  6.0745893794164E-07  3.1650871192832E-08  2.1830718472107E-06
114  1.13  0.  0.  0.
115  1.14  0.  0.  0.
116  1.15  0.  0.  0.
117  1.16  0.  0.  0.
118  1.17  0.  0.  0.
119  1.18  0.  0.  0.
120  1.19  0.  0.  0.
121  1.20  0.  0.  0.
122  1.21  0.  0.  0.
123  1.22  0.  0.  0.
124  1.23  0.  0.  0.
125  1.24  0.  0.  0.
126  1.25  0.  0.  0.
127  1.26  0.  0.  0.
128  1.27  0.  0.  0.
129  1.28  0.  0.  0.
130  1.29  0.  0.  0.
131  1.30  0.  0.  0.
132  1.31  0.  0.  0.
133  1.32  0.  0.  0.
134  1.33  0.  0.  0.
135  1.34  0.  0.  0.
136  1.35  0.  0.  0.
137  1.36  0.  0.  0.
138  1.37  0.  0.  0.
139  1.38  0.  0.  0.
140  1.39  0.  0.  0.
141  1.40  0.  0.  0.
142  1.41  0.  0.  0.
143  1.42  0.  0.  0.
144  1.43  0.  0.  0.
145  1.44  0.  0.  0.
146  1.45  0.  0.  0.
147  1.46  0.  0.  0.
148  1.47  0.  0.  0.
149  1.48  0.  0.  0.
150  1.49  0.  0.  0.
151  1.50  0.  0.  0.
152  1.51  0.  0.  0.
153  1.52  0.  0.  0.
154  1.53  0.  0.  0.
155  1.54  0.  0.  0.
156  1.55  0.  0.  0.
157  1.56  0.  0.  0.
158  1.57  0.  0.  0.
159  1.58  0.  0.  0.
160  1.59  0.  0.  0.
161  1.60  0.  0.  0.
162  1.61  0.  0.  0.
163  1.62  0.  0.  0.
164  1.63  0.  0.  0.
165  1.64  0.  0.  0.
166  1.65  0.  0.  0.
167  1.66  0.  0.  0.
168  1.67  0.  0.  0.
169  1.68  0.  0.  0.
170  1.69  0.  0.  0.
171  1.70  0.  0.  0.
172  1.71  0.  0.  0.
173  1.72  0.  0.  0.
174  1.73  0.  0.  0.
175  1.74  0.  0.  0.
176  1.75  0.  0.  0.
177  1.76  0.  0.  0.
178  1.77  0.  0.  0.
179  1.78  0.  0.  0.
180  1.79  0.  0.  0.
181  1.80  0.  0.  0.
182  1.81  0.  0.  0.
183  1.82  0.  0.  0.
184  1.83  0.  0.  0.
185  1.84  0.  0.  0.
186  1.85  0.  0.  0.
187  1.86  0.  0.  0.
188  1.87  0.  0.  0.
189  1.88  0.  0.  0.
190  1.89  0.  0.  0.
191  1.90  0.  0.  0.
192  1.91  0.  0.  0.
193  1.92  0.  0.  0.
194  1.93  0.  0.  0.
195  1.94  0.  0.  0.
196  1.95  0.  0.  0.
197  1.96  0.  0.  0.
198  1.97  0.  0.  0.
199  1.98  0.  0.  0.
200  1.99  0.  0.  0.
201  2.00  0.  0.  0.
202  2.01  0.  0.  0.
203  2.02  0.  0.  0.
204  2.03  0.  0.  0.
205  2.04  0.  0.  0.
206  2.05  0.  0.  0.
207  2.06  0.  0.  0.
208  2.07  0.  0.  0.
209  2.08  0.  0.  0.
210  2.09  0.  0.  0.
211  2.10  0.  0.  0.
212  2.11  0.  0.  0.
213  2.12  0.  0.  0.
214  2.13  0.  0.  0.
215  2.14  0.  0.  0.
216  2.15  0.  0.  0.
217  2.16  0.  0.  0.
218  2.17  0.  0.  0.
219  2.18  0.  0.  0.
220  2.19  0.  0.  0.
221  2.20  0.  0.  0.
222  2.21  0.  0.  0.
223  2.22  0.  0.  0.
224  2.23  0.  0.  0.
225  2.24  0.  0.  0.
226  2.25  0.  0.  0.
227  2.26  0.  0.  0.
228  2.27  0.  0.  0.
229  2.28  0.  0.  0.
230  2.29  0.  0.  0.
231  2.30  0.  0.  0.
232  2.31  0.  0.  0.
233  2.32  0.  0.  0.
234  2.33  0.  0.  0.
235  2.34  0.  0.  0.
236  2.35  0.  0.  0.
237  2.36  0.  0.  0.
238  2.37  0.  0.  0.
239  2.38  0.  0.  0.
240  2.39  0.  0.  0.
241  2.40  0.  0.  0.
242  2.41  0.  0.  0.
243  2.42  0.  0.  0.
244  2.43  0.  0.  0.
245  2.44  0.  0.  0.
246  2.45  0.  0.  0.
247  2.46  0.  0.  0.
248  2.47  0.  0.  0.
249  2.48  0.  0.  0.
250  2.49  0.  0.  0.
251  2.50  0.  0.  0.
252  2.51  0.  0.  0.
253  2.52  0.  0.  0.
254  2.53  0.  0.  0.
255  2.54  0.  0.  0.
256  2.55  0.  0.  0.
257  2.56  0.  0.  0.
258  2.57  0.  0.  0.
259  2.58  0.  0.  0.
260  2.59  0.  0.  0.
261  2.60  0.  0.  0.
262  2.61  0.  0.  0.
263  2.62  0.  0.  0.
264  2.63  0.  0.  0.
265  2.64  0.  0.  0.
266  2.65  0.  0.  0.
267  2.66  0.  0.  0.
268  2.67  0.  0.  0.
269  2.68  0.  0.  0.
270  2.69  0.  0.  0.
271  2.70  0.  0.  0.
272  2.71  0.  0.  0.
273  2.72  0.  0.  0.
274  2.73  0.  0.  0.
275  2.74  0.  0.  0.
276  2.75  0.  0.  0.
277  2.76  0.  0.  0.
278  2.77  0.  0.  0.
279  2.78  0.  0.  0.
280  2.79  0.  0.  0.
281  2.80  0.  0.  0.
282  2.81  0.  0.  0.
283  2.82  0.  0.  0.
284  2.83  0.  0.  0.
285  2.84  0.  0.  0.
286  2.85  0.  0.  0.
287  2.86  0.  0.  0.
288  2.87  0.  0.  0.
289  2.88  0.  0.  0.
290  2.89  0.  0.  0.
291  2.90  0.  0.  0.
292  2.91  0.  0.  0.
293  2.92  0.  0.  0.
294  2.93  0.  0.  0.
295  2.94  0.  0.  0.
296  2.95  0.  0.  0.
297  2.96  0.  0.  0.
298  2.97  0.  0.  0.
299  2.98  0.  0.  0.
300  2.99  0.  0.  0.
301  3.00  0.  0.  0.
302  3.01  0.  0.  0.
303  3.02  0.  0.  0.
304  3.03  0.  0.  0.
305  3.04  0.  0.  0.
306  3.05  0.  0.  0.
307  3.06  0.  0.  0.
308  3.07  0.  0.  0.
309  3.08  0.  0.  0.
310  3.09  0.  0.  0.
311  3.10  0.  0.  0.
312  3.11  0.  0.  0.
313  3.12  0.  0.  0.
314  3.13  0.  0.  0.
315  3.14  0.  0.  0.
316  3.15  0.  0.  0.
317  3.16  0.  0.  0.
318  3.17  0.  0.  0.
319  3.18  0.  0.  0.
320  3.19  0.  0.  0.
321  3.20  0.  0.  0.
322  3.21  0.  0.  0.
323  3.22  0.  0.  0.
324  3.23  0.  0.  0.
325  3.24  0.  0.  0.
326  3.25  0.  0.  0.
327  3.26  0.  0.  0.
328  3.27  0.  0.  0.
329  3.28  0.  0.  0.
330  3.29  0.  0.  0.
331  3.30  0.  0.  0.
332  3.31  0.  0.  0.
333  3.32  0.  0.  0.
334  3.33  0.  0.  0.
335  3.34  0.  0.  0.
336  3.35  0.  0.  0.
337  3.36  0.  0.  0.
338  3.37  0.  0.  0.
339  3.38  0.  0.  0.
340  3.39  0.  0.  0.
341  3.40  0.  0.  0.
342  3.41  0.  0.  0.
343  3.42  0.  0.  0.
344  3.43  0.  0.  0.
345  3.44  0.  0.  0.
346  3.45  0.  0.  0.
347  3.46  0.  0.  0.
348  3.47  0.  0.  0.
349  3.48  0.  0.  0.
350  3.49  0.  0.  0.
351  3.50  0.  0.  0.
352  3.51  0.  0.  0.
353  3.52  0.  0.  0.
354  3.53  0.  0.  0.
355  3.54  0.  0.  0.
356  3.55  0.  0.  0.
357  3.56  0.  0.  0.
358  3.57  0.  0.  0.
359  3.58  0.  0.  0.
360  3.59  0.  0.  0.
361  3.60  0.  0.  0.
362  3.61  0.  0.  0.
363  3.62  0.  0.  0.
364  3.63  0.  0.  0.
365  3.64  0.  0.  0.
366  3.65  0.  0.  0.
367  3.66  0.  0.  0.
368  3.67  0.  0.  0.
369  3.68  0.  0.  0.
370  3.69  0.  0.  0.
371  3.70  0.  0.  0.
372  3.71  0.  0.  0.
373  3.72  0.  0.  0.
374  3.73  0.  0.  0.
375  3.74  0.  0.  0.
376  3.75  0.  0.  0.
377  3.76  0.  0.  0.
378  3.77  0.  0.  0.
379  3.78  0.  0.  0.
380  3.79  0.  0.  0.
381  3.80  0.  0.  0.
382  3.81  0.  0.  0.
383  3.82  0.  0.  0.
384  3.83  0.  0.  0.
385  3.84  0.  0.  0.
386  3.85  0.  0.  0.
387  3.86  0.  0.  0.
388  3.87  0.  0.  0.
389  3.88  0.  0.  0.
390  3.89  0.  0.  0.
391  3.90  0.  0.  0.
392  3.91  0.  0.  0.
393  3.92  0.  0.  0.
394  3.93  0.  0.  0.
395  3.94  0.  0.  0.
396  3.95  0.  0.  0.
397  3.96  0.  0.  0.
398  3.97  0.  0.  0.
399  3.98  0.  0.  0.
400  3.99  0.  0.  0.
401  4.00  0.  0.  0.
402  4.01  0.  0.  0.
403  4.02  0.  0.  0.
404  4.03  0.  0.  0.
405  4.04  0.  0.  0.
406  4.05  0.  0.  0.
407  4.06  0.  0.  0.
408  4.07  0.  0.  0.
409  4.08  0.  0.  0.
410  4.09  0.  0.  0.
411  4.10  0.  0.  0.
412  4.11  0.  0.  0.
413  4.12  0.  0.  0.
414  4.13  0.  0.  0.
415  4.14  0.  0.  0.
416  4.15  0.  0.  0.
417  4.16  0.  0.  0.
418  4.17  0.  0.  0.
419  4.18  0.  0.  0.
420  4.19  0.  0.  0.
421  4.20  0.  0.  0.
422  4.21  0.  0.  0.
423  4.22  0.  0.  0.
424  4.23  0.  0.  0.
425  4.24  0.  0.  0.
426  4.25  0.  0.  0.
427  4.26  0.  0.  0.
428  4.27  0.  0.  0.
429  4.28  0.  0.  0.
430  4.29  0.  0.  0.
431  4.30  0.  0.  0.
432  4.31  0.  0.  0.
433  4.32  0.  0.  0.
434  4.33  0.  0.  0.
435  4.34  0.  0.  0.
436  4.35  0.  0.  0.
437  4.36  0.  0.  0.
438  4.37  0.  0.  0.
439  4.38  0.  0.  0.
440  4.39  0.  0.  0.
441  4.40  0.  0.  0.
442  4.41  0.  0.  0.
443  4.42  0.  0.  0.
444  4.43  0.  0.  0.
445  4.44  0.  0.  0.
446  4.45  0.  0.  0.
447  4.46  0.  0.  0.
448  4.47  0.  0.  0.
449  4.48  0.  0.  0.
450  4.49  0.  0.  0.
451  4.50  0.  0.  0.
452  4.51  0.  0.  0.
453  4.52  0.  0.  0.
454  4.53  0.  0.  0.
455  4.54  0.  0.  0.
456  4.55  0.  0.  0.
457  4.56  0.  0.  0.
458  4.57  0.  0.  0.
459  4.58  0.  0.  0.
460  4.59  0.  0.  0.
461  4.60  0.  0.  0.
462  4.61  0.  0.  0.
463  4.62  0.  0.  0.
464  4.63  0.  0.  0.
465  4.64  0.  0.  0.
466  4.65  0.  0.  0.
467  4.66  0.  0.  0.
468  4.67  0.  0.  0.
469  4.68  0.  0.  0.
470  4.69  0.  0.  0.
471  4.70  0.  0.  0.
472  4.71  0.  0.  0.
473  4.72  0.  0.  0.
474  4.73  0.  0.  0.
475  4.74  0.  0.  0.
476  4.75  0.  0.  0.
477  4.76  0.  0.  0.
478  4.77  0.  0.  0.
479  4.78  0.  0.  0.
480  4.79  0.  0.  0.
481  4.80  0.  0.  0.
482  4.81  0.  0.  0.
483  4.82  0.  0.  0.
484  4.83  0.  0.  0.
485  4.84  0.  0.  0.
486  4.85  0.  0.  0.
487  4.86  0.  0.  0.
488  4.87  0.  0.  0.
489  4.88  0.  0.  0.
490  4.89  0.  0.  0.
491  4.90  0.  0.  0.
492  4.91  0.  0.  0.
493  4.92  0.  0.  0.
494  4.93  0.  0.  0.
495  4.94  0.  0.  0.
496  4.95  0.  0.  0.
497  4.96  0.  0.  0.
498  4.97  0.  0.  0.
499  4.98  0.  0.  0.
500  4.99  0.  0.  0.
501  5.00  0.  0.  0.
502  5.01  0.  0.  0.
503  5.02  0.  0.  0.
504  5.03  0.  0.  0.
505  5.04  0.  0.  0.
506  5.05  0.  0.  0.
507  5.06  0.  0.  0.
508  5.07  0.  0.  0.
509  5.08  0.  0.  0.
510  5.09  0.  0.  0.
511  5.10  0.  0.  0.
512  5.11  0.  0.  0.
513  5.12  0.  0.  0.
514  5.13  0.  0.  0.
515  5.14  0.  0.  0.
516  5.15  0.  0.  0.
517  5.16  0.  0.  0.
518  5.17  0.  0.  0.
519  5.18  0.  0.  0.
520  5.19  0.  0.  0.
521  5.20  0.  0.  0.
522  5.21  0.  0.  0.
523  5.22  0.  0.  0.
524  5.23  0.  0.  0.
525  5.24  0.  0.  0.
526  5.25  0.  0.  0.
527  5.26  0.  0.  0.
528  5.27  0.  0.  0.
529  5.28  0.  0.  0.
530  5.29  0.  0.  0.
531  5.30  0.  0.  0.
532  5.31  0.  0.  0.
533  5.32  0.  0.  0.
534  5.33  0.  0.  0.
535  5.34  0.  0.  0.
536  5.35  0.  0.  0.
537  5.36  0.  0.  0.
538  5.37  0.  0.  0.
539  5.38  0.  0.  0.
540  5.39  0.  0.  0.
541  5.40  0.  0.  0.
542  5.41  0.  0.  0.
543  5.42  0.  0.  0.
544  5.43  0.  0.  0.
545  5.44  0.  0.  0.
546  5.45  0.  0.  0.
547  5.46  0.  0.  0.
548  5.47  0.  0.  0.
549  5.48  0.  0.  0.
550  5.49  0.  0.  0.
551  5.50  0.  0.  0.
552  5.51  0.  0.  0.
553  5.52  0.  0.  0.
554  5.53  0.  0.  0.
555  5.54  0.  0.  0.
556  5.55  0.  0.  0.
557  5.56  0.  0.  0.
558  5.57  0.  0.  0.
559  5.58  0.  0.  0.
560  5.59  0.  0.  0.
561  5.60  0.  0.  0.
562  5.61  0.  0.  0.
563  5.62  0.  0.  0.
564  5.63  0.  0.  0.
565  5.64  0.  0.  0.
566  5.65  0.  0.  0.
567  5.66  0.  0.  0.
568  5.67  0.  0.  0.
569  5.68  0.  0.  0.
570  5.69  0.  0.  0.
571  5.70  0.  0.  0.
572  5.71  0.  0.  0.
573  5.72  0.  0.  0.
574  5.73  0.  0.  0.
575  5.74  0.  0.  0.
576  5.75  0.  0.  0.
577  5.76  0.  0.  0.
578  5.77  0.  0.  0.
579  5.78  0.  0.  0.
580  5.79  0.  0.  0.
581  5.80  0.  0.  0.
582  5.81  0.  0.  0.
583  5.82  0.  0.  0.
584  5.83  0.  0.  0.
585  5.84  0.  0.  0.
586  5.85  0.  0.  0.
587  5.86  0.  0.  0.
588  5.87  0.  0.  0.
589  5.88  0.  0.  0.
590  5.89  0.  0.  0.
591  5.90  0.  0.  0.
592  5.91  0.  0.  0.
593  5.92  0.  0.  0.
594  5.93  0.  0.  0.
595  5.94  0.  0.  0.
596  5.95  0.  0.  0.
597  5.96  0.  0.  0.
598  5.97  0.  0.  0.
599  5.98  0.  0.  0.
600  5.99  0.  0.  0.
1                        -6.9996582856024E+00  6.0634392973171E+00 -3.3246888125722E-01
1  0.0000000000000E+00 -8.2856503325068E-09  5.3696921464841E-08  9.3040818882617E-08
2  1.0000000000000E-02  1.3735183112333E-03  8.2761896762981E-03  4.8271768102996E-03
3  2.0000000000000E-02  5.4986521040717E-03  3.2972921858390E-02  1.9183155671978E-02
4  3.0000000000000E-02  1.2388909669501E-02  7.3696690094571E-02  4.2693986682564E-02
5  4.0000000000000E-02  2.2066048703617E-02  1.2979830042568E-01  7.4745380913248E-02
6  5.0000000000000E-02  3.4558958950248E-02  2.0038274140601E-01  1.1449595999108E-01
7  6.0000000000000E-02  4.9902131237090E-02  2.8432279330206E-01  1.6089542589248E-01
8  7.0000000000000E-02  6.8133745511275E-02  3.8027617114378E-01  2.1270728044063E-01
9  8.0000000000000E-02  8.9293418765900E-02  4.8670594260607E-01  2.6853563095849E-01
10  9.0000000000000E-02  1.1341966128550E-01  6.0190391165756E-01  3.2685553475684E-01
11  1.0000000000000E-01  1.4054709628453E-01  7.2401661326348E-01  3.8604626231176E-01
12  1.1000000000000E-01  1.7070350364286E-01  8.5107352385660E-01  4.4442679857623E-01
13  1.2000000000000E-01  2.0390675294646E-01  9.8101705742542E-01  5.0029285509800E-01
14  1.3000000000000E-01  2.4016169433069E-01  1.1117338884767E+00  5.5195463343185E-01
15  1.4000000000000E-01  2.7945707762742E-01  1.2410871212995E+00  5.9777456340444E-01
16  1.5000000000000E-01  3.2176257098952E-01  1.3669488102980E+00  6.3620423847547E-01
17  1.6000000000000E-01  3.6702594948197E-01  1.4872323289786E+00  6.6581978479257E-01
18  1.7000000000000E-01  4.1517052208820E-01  1.5999240856971E+00  6.8535493029800E-01
19  1.8000000000000E-01  4.6609286220779E-01  1.7031140925831E+00  6.9373108484614E-01
20  1.9000000000000E-01  5.1966090206404E-01  1.7950249101692E+00  6.9008380086592E-01
21  2.0000000000000E-01  5.7571244557089E-01  1.8740385140222E+00  6.7378505550417E-01
22  2.1000000000000E-01  6.3405414722109E-01  1.9387206608541E+00  6.4446087800809E-01
23  2.2000000000000E-01  6.9446099656890E-01  1.9878423698131E+00  6.0200393870858E-01
24  2.3000000000000E-01  7.5667633902580E-01  2.0203981794120E+00  5.4658081650897E-01
25  2.4000000000000E-01  8.2041245412108E-01  2.0356208912322E+00  4.7863376826194E-01
26  2.5000000000000E-01  8.8535170226929E-01  2.0329925674056E+00  3.9887693369894E-01
27  2.6000000000000E-01  9.5114824061433E-01  2.0122516090814E+00  3.0828702144705E-01
28  2.7000000000000E-01  1.0174302978770E+00  1.9733958066982E+00  2.0808863287480E-01
29  2.8000000000000E-01  1.0838029875140E+00  1.9166813188608E+00  9.9734488802660E-02
30  2.9000000000000E-01  1.1498516281038E+00  1.8426176038916E+00 -1.5119072698803E-02
31  3.0000000000000E-01  1.2151455299002E+00  1.7519583955263E+00 -1.3464086322060E-01
32  3.1000000000000E-01  1.2792421971408E+00  1.6456888805797E+00 -2.5685732462162E-01
33  3.2000000000000E-01  1.3416918871343E+00  1.5250093005307E+00 -3.7968809644843E-01
34  3.3000000000000E-01  1.4020424595656E+00  1.3913152596859E+00 -5.0098397993126E-01
35  3.4000000000000E-01  1.4598444429921E+00  1.2461750787406E+00 -6.1856655878358E-01
36  3.5000000000000E-01  1.5146562403009E+00  1.0913045830716E+00 -7.3026870235190E-01
37  3.6000000000000E-01  1.5660493910744E+00  9.2853975898782E-01 -8.3397515756822E-01
38  3.7000000000000E-01  1.6136138064425E+00  7.5980774751496E-01 -9.2766243306293E-01
39  3.8000000000000E-01  1.6569628911652E+00  5.8709667335846E-01 -1.0094371917874E+00
40  3.9000000000000E-01  1.6957384684087E+00  4.1242482583783E-01 -1.0775723973272E+00
41  4.0000000000000E-01  1.7296154249581E+00  2.3780971837654E-01 -1.1305405031846E+00
42  4.1000000000000E-01  1.7583059984225E+00  6.5237553281249E-02 -1.1670430327814E+00
43  4.2000000000000E-01  1.7815636332758E+00 -1.0336639102753E-01 -1.1860359695937E+00
44  4.3000000000000E-01  1.7991863392520E+00 -2.6616595235692E-01 -1.1867504602015E+00
45  4.4000000000000E-01  1.8110194935521E+00 -4.2144038717067E-01 -1.1687084264202E+00
46  4.5000000000000E-01  1.8169580373953E+00 -5.6760835091622E-01 -1.1317327841385E+00
47  4.6000000000000E-01  1.8169480274722E+00 -7.0324916946920E-01 -1.0759520739331E+00
48  4.7000000000000E-01  1.8109875136610E+00 -8.2712106757117E-01 -1.0017994197435E+00
49  4.8000000000000E-01  1.7991267257415E+00 -9.3817607901229E-01 -9.1000584456296E-01
50  4.9000000000000E-01  1.7814675635573E+00 -1.0355714272407E+00 -8.0158808391587E-01
51  5.0000000000000E-01  1.7581623969299E+00 -1.1186772327807E+00 -6.7783114652563E-01
52  5.1000000000000E-01  1.7294121933676E+00 -1.1870804739418E+00 -5.4026597480122E-01
53  5.2000000000000E-01  1.6954640030243E+00 -1.2405851983670E+00 -3.9064265346035E-01
54  5.3000000000000E-01  1.6566078412201E+00 -1.2792090535513E+00 -2.3089970080701E-01
55  5.4000000000000E-01  1.6131730189259E+00 -1.3031762730947E+00 -6.3130052148201E-02
56  5.5000000000000E-01  1.5655239807423E+00 -1.3129073207463E+00  1.1045559293688E-01
57  5.6000000000000E-01  1.5140557178930E+00 -1.3090054548847E+00  2.8756733948919E-01
58  5.7000000000000E-01  1.4591888304531E+00 -1.2922405307487E+00  4.6587582884156E-01
59  5.8000000000000E-01  1.4013643183126E+00 -1.2635304053653E+00  6.4305236175850E-01
60  5.9000000000000E-01  1.3410381841495E+00 -1.2239203497772E+00  8.1680863952870E-01
61  6.0000000000000E-01  1.2786759338770E+00 -1.1745609040931E+00  9.8493536293210E-01
62  6.1000000000000E-01  1.2147470606216E+00 -1.1166846324941E+00  1.1453389576649E+00
63  6.2000000000000E-01  1.1497195972738E+00 -1.0515822472880E+00  1.2960757379477E+00
64  6.3000000000000E-01  1.0840548200781E+00 -9.8057857326920E-01  1.4353828766208E+00
65  6.4000000000000E-01  1.0182021816552E+00 -9.0500881610932E-01  1.5617056187264E+00
66  6.5000000000000E-01  9.5259454639351E-01 -8.2619558156736E-01  1.6737202548214E+00
67  6.6000000000000E-01  8.8764379442227E-01 -7.4542706649752E-01  1.7703524583012E+00
68  6.7000000000000E-01  8.2373685255357E-01 -6.6393680863465E-01  1.8507906859091E+00
69  6.8000000000000E-01  7.6123220183061E-01 -5.8288534084467E-01  1.9144944403364E+00
70  6.9000000000000E-01  7.0045690183464E-01 -5.0334404795575E-01  1.9611972962901E+00
71  7.0000000000000E-01  6.4170416189705E-01 -4.2628147159002E-01  1.9909046945152E+00
72  7.1000000000000E-01  5.8523147904682E-01 -3.5255225181961E-01  2.0038866099711E+00
73  7.2000000000000E-01  5.3125935211629E-01 -2.8288883527476E-01  2.0006652987028E+00
74  7.3000000000000E-01  4.7997057114383E-01 -2.1789601883500E-01  1.9819984211180E+00
75  7.4000000000000E-01  4.3151007125553E-01 -1.5804833753737E-01  1.9488579257469E+00
76  7.5000000000000E-01  3.8598533077600E-01 -1.0369024608647E-01  1.9024051557223E+00
77  7.6000000000000E-01  3.4346728458261E-01 -5.5038986507739E-02  1.8439627090233E+00
78  7.7000000000000E-01  3.0399171583653E-01 -1.2189981114165E-02  1.7749836421076E+00
79  7.8000000000000E-01  2.6756108232597E-01  2.4875459030292E-02  1.6970186543460E+00
80  7.9000000000000E-01  2.3414672784498E-01  5.6280363799296E-02  1.6116819273841E+00
81  8.0000000000000E-01  2.0369142437909E-01  8.2240563589270E-02  1.5206163192448E+00
82  8.1000000000000E-01  1.7611218742013E-01  1.0305170249135E-01  1.4254586279598E+00
83  8.2000000000000E-01  1.5130330449928E-01  1.1907515433012E-01  1.3278056443959E+00
84  8.3000000000000E-01  1.2913951599176E-01  1.3072321005665E-01  1.2291817095858E+00
85  8.4000000000000E-01  1.0947928736386E-01  1.3844391797477E-01  1.1310084793698E+00
86  8.5000000000000E-01  9.2168113227849E-02  1.4270596539368E-01  1.0345775797872E+00
87  8.6000000000000E-01  7.7041795747940E-02  1.4398399203962E-01  9.4102681185827E-01
88  8.7000000000000E-01  6.3929642981328E-02  1.4274472256530E-01  8.5132053571309E-01
89  8.8000000000000E-01  5.2657536508286E-02  1.3943429853299E-01  7.6623483306695E-01
90  8.9000000000000E-01  4.3050822056219E-02  1.3446718016942E-01  6.8634801545257E-01
91  9.0000000000000E-01  3.4936981597900E-02  1.2821697592421E-01  6.1203701501424E-01
92  9.1000000000000E-01  2.8148050443038E-02  1.2100954436977E-01  5.4348016662122E-01
93  9.2000000000000E-01  2.2522747984186E-02  1.1311869923602E-01  4.8066686603644E-01
94  9.3000000000000E-01  1.7908295846384E-02  1.0476483533635E-01  4.2341457023753E-01
95  9.4000000000000E-01  1.4161902076723E-02  9.6116781732131E-02  3.7139359393384E-01
96  9.5000000000000E-01  1.1151894558860E-02  8.7297179554836E-02  3.2416015188686E-01
97  9.6000000000000E-01  8.7584909278692E-03  7.8391676228384E-02  2.8119810067649E-01
98  9.7000000000000E-01  6.8741957875528E-03  6.9462226077479E-02  2.4196984670926E-01
99  9.8000000000000E-01  5.4038189124431E-03  6.0564790023289E-02  2.0597691000011E-01
100  9.9000000000000E-01  4.2641101868025E-03  5.1771742752266E-02  1.7283068884954E-01
101  1.0000000000000E+00  3.3830094884857E-03  4.3199217767173E-02  1.4233375320509E-01
102  1.0100000000000E+00  2.6985607132221E-03  3.5034596471542E-02  1.1455754369229E-01