<UPF version="2.0.1">
  <PP_INFO>
    Generated using "atomic" code by A. Dal Corso  v.5.0.99 svn rev. 10869
    Author: ADC
    Generation date: 10Apr2014
    Pseudopotential type: PAW
    Element: Pd
    Functional:  SLA  PW   PBX  PBC

    Suggested minimum cutoff for wavefunctions:  69. Ry
    Suggested minimum cutoff for charge density: 551. Ry
    The Pseudo was generated with a Scalar-Relativistic Calculation
    Local Potential by smoothing AE potential with Bessel fncs, cutoff radius:   1.4000
    Pseudopotential contains additional information for GIPAW reconstruction.

    Valence configuration: 
    nl pn  l   occ       Rcut    Rcut US       E pseu
    4S  1  0  2.00      1.200      1.700    -6.271728
    5S  2  0  0.00      1.200      1.300    -0.244145
    4P  2  1  6.00      0.900      1.700    -3.763030
    5P  3  1  0.00      0.900      1.300    -0.023045
    4D  3  2 10.00      0.800      1.800    -0.297493
    Generation configuration:
    4S  1  0  2.00      1.200      1.700    -6.271729
    5S  2  0  0.00      1.200      1.300    -0.244145
    4P  2  1  6.00      0.900      1.700    -3.763029
    5P  3  1  0.00      0.900      1.300    -0.023020
    4D  3  2 10.00      0.800      1.800    -0.297489
    4D  3  2 -2.00      0.800      1.800     0.300000

    Pseudization used: troullier-martins
<PP_INPUTFILE>
 &amp;input

   title='Pd',
   zed=46.,
   rel=1,
   config='[Kr] 4d10. 5s0.0 5p0.0',
   iswitch=3,
   dft='PBE'
 /
 &amp;inputp

   lpaw=.true.,
   pseudotype=3,
   file_pseudopw='Pd.pbe-spn-kjpaw_psl.0.3.0.UPF',
   author='ADC',
   lloc=-1,
   rcloc=1.4,
   which_augfun='PSQ',
   rmatch_augfun_nc=.true.,
   nlcc=.true.,
   tm=.true.
   lgipaw_reconstruction=.true.
   use_paw_as_gipaw=.true.
 /
6
4S  1  0  2.00  0.00  1.20  1.70  0.0
5S  2  0  0.00  0.00  1.20  1.30  0.0
4P  2  1  6.00  0.00  0.90  1.70  0.0
5P  3  1  0.00  0.00  0.90  1.30  0.0
4D  3  2 10.00  0.00  0.80  1.80  0.0
4D  3  2 -2.00  0.30  0.80  1.80  0.0
</PP_INPUTFILE>
  </PP_INFO>
  <!--                               -->
  <!-- END OF HUMAN READABLE SECTION -->
  <!--                               -->
  <PP_HEADER generated='Generated using "atomic" code by A. Dal Corso  v.5.0.99 svn rev. 10869'
             author="ADC"
             date="10Apr2014"
             comment=""
             element="Pd"
             pseudo_type="PAW"
             relativistic="scalar"
             is_ultrasoft="T"
             is_paw="T"
             is_coulomb="F"
             has_so="F"
             has_wfc="T"
             has_gipaw="T"
             paw_as_gipaw="T"
             core_correction="T"
             functional=" SLA  PW   PBX  PBC"
             z_valence="1.800000000000000E+001"
             total_psenergy="-5.117602426269925E+002"
             wfc_cutoff="6.886403017983314E+001"
             rho_cutoff="5.506461189923119E+002"
             l_max="2"
             l_max_rho="4"
             l_local="-1"
             mesh_size="1235"
             number_of_wfc="5"
             number_of_proj="6"/>
  <PP_MESH dx="1.250000000000000E-002" mesh="1235" xmin="-7.000000000000000E+000" rmax="1.000000000000000E+002"
zmesh="4.600000000000000E+001">
    <PP_R type="real" size="1235" columns="4">
 1.982352099031557E-005  2.007287018845700E-005  2.032535581340396E-005  2.058101731654900E-005 
 2.083989464552217E-005  2.110202825043280E-005  2.136745909018997E-005  2.163622863890242E-005 
 2.190837889235892E-005  2.218395237459032E-005  2.246299214451385E-005  2.274554180266127E-005 
 2.303164549799152E-005  2.332134793478906E-005  2.361469437964908E-005  2.391173066855040E-005 
 2.421250321401746E-005  2.451705901237244E-005  2.482544565107843E-005  2.513771131617517E-005 
 2.545390479980814E-005  2.577407550785245E-005  2.609827346763263E-005  2.642654933573945E-005 
 2.675895440594524E-005  2.709554061721847E-005  2.743636056183945E-005  2.778146749361792E-005 
 2.813091533621409E-005  2.848475869156435E-005  2.884305284841286E-005  2.920585379095058E-005 
 2.957321820756291E-005  2.994520349968733E-005  3.032186779078258E-005  3.070326993541047E-005 
 3.108946952843205E-005  3.148052691431947E-005  3.187650319658485E-005  3.227746024732798E-005 
 3.268346071690375E-005  3.309456804371155E-005  3.351084646410762E-005  3.393236102244200E-005 
 3.435917758122211E-005  3.479136283140357E-005  3.522898430281101E-005  3.567211037468969E-005 
 3.612081028638986E-005  3.657515414818568E-005  3.703521295222987E-005  3.750105858364657E-005 
 3.797276383176347E-005  3.845040240148523E-005  3.893404892481021E-005  3.942377897249163E-005 
 3.991966906584581E-005  4.042179668870872E-005  4.093024029954298E-005  4.144507934369732E-005 
 4.196639426581976E-005  4.249426652242754E-005  4.302877859463471E-005  4.357001400103998E-005 
 4.411805731077682E-005  4.467299415672737E-005  4.523491124890281E-005  4.580389638799205E-005 
 4.638003847908061E-005  4.696342754554249E-005  4.755415474310620E-005  4.815231237409820E-005 
 4.875799390186529E-005  4.937129396537841E-005  4.999230839402035E-005  5.062113422255899E-005 
 5.125786970630941E-005  5.190261433648638E-005  5.255546885575008E-005  5.321653527394746E-005 
 5.388591688405127E-005  5.456371827829997E-005  5.525004536454040E-005  5.594500538277609E-005 
 5.664870692192388E-005  5.736125993678090E-005  5.808277576520545E-005  5.881336714551362E-005 
 5.955314823409497E-005  6.030223462324975E-005  6.106074335925028E-005  6.182879296062973E-005 
 6.260650343670094E-005  6.339399630630800E-005  6.419139461681406E-005  6.499882296332740E-005 
 6.581640750816990E-005  6.664427600059007E-005  6.748255779672410E-005  6.833138387980826E-005 
 6.919088688064493E-005  7.006120109832666E-005  7.094246252122061E-005  7.183480884821701E-005 
 7.273837951024504E-005  7.365331569205895E-005  7.457976035429857E-005  7.551785825582725E-005 
 7.646775597635062E-005  7.742960193932021E-005  7.840354643512458E-005  7.938974164457268E-005 
 8.038834166267244E-005  8.139950252270827E-005  8.242338222062191E-005  8.346014073969921E-005 
 8.450994007556805E-005  8.557294426151051E-005  8.664931939409328E-005  8.773923365912083E-005 
 8.884285735791450E-005  8.996036293392254E-005  9.109192499966477E-005  9.223772036401610E-005 
 9.339792805983348E-005  9.457272937192976E-005  9.576230786540013E-005  9.696684941430439E-005 
 9.818654223071013E-005  9.942157689410159E-005  1.006721463811575E-004  1.019384460959046E-004 
 1.032206739002495E-004  1.045190301448953E-004  1.058337177006470E-004  1.071649419901098E-004 
 1.085129110197873E-004  1.098778354125829E-004  1.112599284407098E-004  1.126594060590158E-004 
 1.140764869387257E-004  1.155113925016103E-004  1.169643469545831E-004  1.184355773247331E-004 
 1.199253134947994E-004  1.214337882390891E-004  1.229612372598502E-004  1.245078992240997E-004 
 1.260740158009161E-004  1.276598316992011E-004  1.292655947059151E-004  1.308915557247947E-004 
 1.325379688155574E-004  1.342050912335979E-004  1.358931834701861E-004  1.376025092931684E-004 
 1.393333357881822E-004  1.410859334003888E-004  1.428605759767307E-004  1.446575408087212E-004 
 1.464771086757710E-004  1.483195638890615E-004  1.501851943359681E-004  1.520742915250437E-004 
 1.539871506315679E-004  1.559240705436674E-004  1.578853539090194E-004  1.598713071821399E-004 
 1.618822406722682E-004  1.639184685918538E-004  1.659803091056513E-004  1.680680843804363E-004 
 1.701821206353429E-004  1.723227481928368E-004  1.744903015303296E-004  1.766851193324394E-004 
 1.789075445439137E-004  1.811579244232132E-004  1.834366105967724E-004  1.857439591139423E-004 
 1.880803305026225E-004  1.904460898255963E-004  1.928416067375708E-004  1.952672555429373E-004 
 1.977234152542571E-004  2.002104696514813E-004  2.027288073419202E-004  2.052788218209611E-004 
 2.078609115335545E-004  2.104754799364716E-004  2.131229355613441E-004  2.158036920785003E-004 
 2.185181683615997E-004  2.212667885530841E-004  2.240499821304511E-004  2.268681839733588E-004 
 2.297218344315794E-004  2.326113793938028E-004  2.355372703573076E-004  2.384999644985106E-004 
 2.414999247443979E-004  2.445376198448623E-004  2.476135244459430E-004  2.507281191639917E-004 
 2.538818906607707E-004  2.570753317194917E-004  2.603089413218179E-004  2.635832247258282E-004 
 2.668986935449660E-004  2.702558658279803E-004  2.736552661398695E-004  2.770974256438493E-004 
 2.805828821843451E-004  2.841121803710322E-004  2.876858716639335E-004  2.913045144595832E-004 
 2.949686741782812E-004  2.986789233524379E-004  3.024358417160352E-004  3.062400162952116E-004 
 3.100920414999838E-004  3.139925192171278E-004  3.179420589042222E-004  3.219412776848783E-004 
 3.259908004451677E-004  3.300912599312597E-004  3.342432968482920E-004  3.384475599604802E-004 
 3.427047061924888E-004  3.470154007320788E-004  3.513803171340407E-004  3.558001374254441E-004 
 3.602755522122012E-004  3.648072607869774E-004  3.693959712384583E-004  3.740424005619866E-004 
 3.787472747715981E-004  3.835113290134601E-004  3.883353076807399E-004  3.932199645299198E-004 
 3.981660627985691E-004  4.031743753246062E-004  4.082456846670524E-004  4.133807832283099E-004 
 4.185804733779767E-004  4.238455675782173E-004  4.291768885107126E-004  4.345752692052050E-004 
 4.400415531696607E-004  4.455765945220708E-004  4.511812581239074E-004  4.568564197152615E-004 
 4.626029660516777E-004  4.684217950427124E-004  4.743138158922342E-004  4.802799492404879E-004 
 4.863211273079478E-004  4.924382940409776E-004  4.986324052593246E-004  5.049044288054690E-004 
 5.112553446958502E-004  5.176861452739974E-004  5.241978353655842E-004  5.307914324354355E-004 
 5.374679667465087E-004  5.442284815208728E-004  5.510740331027162E-004  5.580056911234008E-004 
 5.650245386685946E-004  5.721316724475068E-004  5.793282029642497E-004  5.866152546913584E-004 
 5.939939662454906E-004  6.014654905653387E-004  6.090309950917787E-004  6.166916619502848E-004 
 6.244486881356398E-004  6.323032856989668E-004  6.402566819371150E-004  6.483101195844284E-004 
 6.564648570069239E-004  6.647221683989151E-004  6.730833439821064E-004  6.815496902071932E-004 
 6.901225299579990E-004  6.988032027581754E-004  7.075930649805093E-004  7.164934900588558E-004 
 7.255058687027409E-004  7.346316091146643E-004  7.438721372101311E-004  7.532288968404570E-004 
 7.627033500183704E-004  7.722969771464558E-004  7.820112772484710E-004  7.918477682035703E-004 
 8.018079869834785E-004  8.118934898926440E-004  8.221058528114149E-004  8.324466714422753E-004 
 8.429175615591742E-004  8.535201592599960E-004  8.642561212222025E-004  8.751271249616924E-004 
 8.861348690949179E-004  8.972810736042945E-004  9.085674801069547E-004  9.199958521268765E-004 
 9.315679753704388E-004  9.432856580054430E-004  9.551507309436396E-004  9.671650481268157E-004 
 9.793304868164743E-004  9.916489478871610E-004  1.004122356123481E-003  1.016752660520847E-003 
 1.029541834590020E-003  1.042491876665467E-003  1.055604810217608E-003  1.068882684168991E-003 
 1.082327573214433E-003  1.095941578145204E-003  1.109726826177270E-003  1.123685471283683E-003 
 1.137819694531139E-003  1.152131704420778E-003  1.166623737233264E-003  1.181298057378206E-003 
 1.196156957747984E-003  1.211202760076009E-003  1.226437815299508E-003  1.241864503926854E-003 
 1.257485236409532E-003  1.273302453518773E-003  1.289318626726929E-003  1.305536258593651E-003 
 1.321957883156913E-003  1.338586066328962E-003  1.355423406297249E-003  1.372472533930399E-003 
 1.389736113189295E-003  1.407216841543316E-003  1.424917450391834E-003  1.442840705490992E-003 
 1.460989407385864E-003  1.479366391848048E-003  1.497974530318752E-003  1.516816730357471E-003 
 1.535895936096296E-003  1.555215128699940E-003  1.574777326831553E-003  1.594585587124394E-003 
 1.614643004659433E-003  1.634952713448966E-003  1.655517886926311E-003  1.676341738441668E-003 
 1.697427521764199E-003  1.718778531590450E-003  1.740398104059143E-003  1.762289617272462E-003 
 1.784456491823887E-003  1.806902191332664E-003  1.829630222985009E-003  1.852644138082106E-003 
 1.875947532595011E-003  1.899544047726530E-003  1.923437370480159E-003  1.947631234236189E-003 
 1.972129419335055E-003  1.996935753668020E-003  2.022054113275293E-003  2.047488422951667E-003 
 2.073242656859775E-003  2.099320839151062E-003  2.125727044594566E-003  2.152465399213615E-003 
 2.179540080930516E-003  2.206955320219371E-003  2.234715400767097E-003  2.262824660142753E-003 
 2.291287490475312E-003  2.320108339139918E-003  2.349291709452811E-003  2.378842161374978E-003 
 2.408764312224651E-003  2.439062837398777E-003  2.469742471103560E-003  2.500808007094183E-003 
 2.532264299423848E-003  2.564116263202230E-003  2.596368875363470E-003  2.629027175443841E-003 
 2.662096266369173E-003  2.695581315252202E-003  2.729487554199942E-003  2.763820281131208E-003 
 2.798584860604440E-003  2.833786724655906E-003  2.869431373648485E-003  2.905524377131098E-003 
 2.942071374708972E-003  2.979078076924836E-003  3.016550266151202E-003  3.054493797493874E-003 
 3.092914599706819E-003  3.131818676118549E-003  3.171212105570161E-003  3.211101043365149E-003 
 3.251491722231199E-003  3.292390453294058E-003  3.333803627063662E-003  3.375737714432674E-003 
 3.418199267687558E-003  3.461194921532399E-003  3.504731394125584E-003  3.548815488129531E-003 
 3.593454091773621E-003  3.638654179930490E-003  3.684422815205874E-003  3.730767149042149E-003 
 3.777694422835764E-003  3.825211969068729E-003  3.873327212454315E-003  3.922047671097192E-003 
 3.971380957668147E-003  4.021334780593571E-003  4.071916945259936E-003  4.123135355233377E-003 
 4.174998013494657E-003  4.227513023689644E-003  4.280688591395523E-003  4.334533025402938E-003 
 4.389054739014249E-003  4.444262251358132E-003  4.500164188720713E-003  4.556769285893431E-003 
 4.614086387537893E-003  4.672124449567840E-003  4.730892540548544E-003  4.790399843113783E-003 
 4.850655655400648E-003  4.911669392502410E-003  4.973450587939620E-003  5.036008895149759E-003 
 5.099354088995605E-003  5.163496067292568E-003  5.228444852355265E-003  5.294210592563495E-003 
 5.360803563947970E-003  5.428234171795950E-003  5.496512952277097E-003  5.565650574089785E-003 
 5.635657840128079E-003  5.706545689169726E-003  5.778325197585365E-003  5.851007581069215E-003 
 5.924604196391579E-003  5.999126543173331E-003  6.074586265682771E-003  6.150995154655066E-003 
 6.228365149134567E-003  6.306708338340334E-003  6.386036963555064E-003  6.466363420037841E-003 
 6.547700258960920E-003  6.630060189370854E-003  6.713456080174346E-003  6.797900962148998E-003 
 6.883408029979421E-003  6.969990644318932E-003  7.057662333877168E-003  7.146436797534004E-003 
 7.236327906479992E-003  7.327349706383793E-003  7.419516419586825E-003  7.512842447325533E-003 
 7.607342371981640E-003  7.703030959360627E-003  7.799923160998951E-003  7.898034116500250E-003 
 7.997379155900920E-003  8.097973802065500E-003  8.199833773112109E-003  8.302974984868459E-003 
 8.407413553358728E-003  8.513165797321717E-003  8.620248240760716E-003  8.728677615525366E-003 
 8.838470863926072E-003  8.949645141381277E-003  9.062217819098009E-003  9.176206486786208E-003 
 9.291628955407106E-003  9.408503259956250E-003  9.526847662281512E-003  9.646680653936519E-003 
 9.768020959070036E-003  9.890887537351602E-003  1.001529958693404E-002  1.014127654745323E-002 
 1.026883810306554E-002  1.039800418552357E-002  1.052879497729049E-002  1.066123091469362E-002 
 1.079533269111761E-002  1.093112126023785E-002  1.106861783929455E-002  1.120784391240792E-002 
 1.134882123393514E-002  1.149157183186952E-002  1.163611801128240E-002  1.178248235780842E-002 
 1.193068774117449E-002  1.208075731877330E-002  1.223271453928165E-002  1.238658314632441E-002 
 1.254238718218450E-002  1.270015099155948E-002  1.285989922536555E-002  1.302165684458926E-002 
 1.318544912418768E-002  1.335130165703778E-002  1.351924035793522E-002  1.368929146764370E-002 
 1.386148155699508E-002  1.403583753104113E-002  1.421238663325755E-002  1.439115644980074E-002 
 1.457217491381825E-002  1.475547030981337E-002  1.494107127806461E-002  1.512900681910092E-002 
 1.531930629823290E-002  1.551199945014137E-002  1.570711638352332E-002  1.590468758579656E-002 
 1.610474392786343E-002  1.630731666893439E-002  1.651243746141237E-002  1.672013835583850E-002 
 1.693045180590011E-002  1.714341067350167E-002  1.735904823389951E-002  1.757739818090115E-002 
 1.779849463213005E-002  1.802237213435653E-002  1.824906566889582E-002  1.847861065707388E-002 
 1.871104296576214E-002  1.894639891298171E-002  1.918471527357816E-002  1.942602928496773E-002 
 1.967037865295565E-002  1.991780155762779E-002  2.016833665931638E-002  2.042202310464078E-002 
 2.067890053262422E-002  2.093900908088744E-002  2.120238939192029E-002  2.146908261943222E-002 
 2.173913043478261E-002  2.201257503349206E-002  2.228945914183542E-002  2.256982602351795E-002 
 2.285371948643532E-002  2.314118388951868E-002  2.343226414966591E-002  2.372700574875983E-002 
 2.402545474077496E-002  2.432765775897351E-002  2.463366202319188E-002  2.494351534721897E-002 
 2.525726614626703E-002  2.557496344453676E-002  2.589665688287737E-002  2.622239672654306E-002 
 2.655223387304717E-002  2.688621986011490E-002  2.722440687373620E-002  2.756684775632001E-002 
 2.791359601495090E-002  2.826470582974981E-002  2.862023206233961E-002  2.898023026441747E-002 
 2.934475668643487E-002  2.971386828638688E-002  3.008762273871199E-002  3.046607844330378E-002 
 3.084929453463604E-002  3.123733089100273E-002  3.163024814387394E-002  3.202810768736991E-002 
 3.243097168785371E-002  3.283890309364507E-002  3.325196564485609E-002  3.367022388335072E-002 
 3.409374316282977E-002  3.452258965904226E-002  3.495683038012574E-002  3.539653317707633E-002 
 3.584176675435061E-002  3.629260068060094E-002  3.674910539954548E-002  3.721135224097533E-002 
 3.767941343189992E-002  3.815336210783258E-002  3.863327232421823E-002  3.911921906800455E-002 
 3.961127826935891E-002  4.010952681353263E-002  4.061404255287440E-002  4.112490431899500E-002 
 4.164219193508471E-002  4.216598622838598E-002  4.269636904282279E-002  4.323342325178896E-002 
 4.377723277109733E-002  4.432788257209164E-002  4.488545869492364E-002  4.545004826199689E-002 
 4.602173949157989E-002  4.660062171159043E-002  4.718678537355311E-002  4.778032206673268E-002 
 4.838132453244498E-002  4.898988667854801E-002  4.960610359411530E-002  5.023007156429358E-002 
 5.086188808534765E-002  5.150165187989438E-002  5.214946291232822E-002  5.280542240444106E-002 
 5.346963285123806E-002  5.414219803695287E-002  5.482322305126412E-002  5.551281430571580E-002 
 5.621107955034450E-002  5.691812789051526E-002  5.763406980396973E-002  5.835901715808853E-002 
 5.909308322737054E-002  5.983638271113276E-002  6.058903175143156E-002  6.135114795121086E-002 
 6.212285039267752E-002  6.290425965590785E-002  6.369549783768924E-002  6.449668857059714E-002 
 6.530795704231374E-002  6.612943001518838E-002  6.696123584604416E-002  6.780350450623468E-002 
 6.865636760195150E-002  6.951995839478857E-002  7.039441182256442E-002  7.127986452040594E-002 
 7.217645484209893E-002  7.308432288170501E-002  7.400361049545257E-002  7.493446132390168E-002 
 7.587702081438785E-002  7.683143624374943E-002  7.779785674133870E-002  7.877643331232480E-002 
 7.976731886128798E-002  8.077066821611095E-002  8.178663815217205E-002  8.281538741684048E-002 
 8.385707675428203E-002  8.491186893057510E-002  8.597992875914298E-002  8.706142312650715E-002 
 8.815652101836254E-002  8.926539354598285E-002  9.038821397295675E-002  9.152515774226000E-002 
 9.267640250367004E-002  9.384212814152271E-002  9.502251680282080E-002  9.621775292569430E-002 
 9.742802326821880E-002  9.865351693759798E-002  9.989442541971065E-002  1.011509426090319E-001 
 1.024232648389292E-001  1.037115909123392E-001  1.050161221328322E-001  1.063370623360654E-001 
 1.076746179216329E-001  1.090289978853166E-001  1.104004138517409E-001  1.117890801074411E-001 
 1.131952136343446E-001  1.146190341436759E-001  1.160607641102865E-001  1.175206288074167E-001 
 1.189988563418958E-001  1.204956776897831E-001  1.220113267324599E-001  1.235460402931728E-001 
 1.251000581740376E-001  1.266736231935104E-001  1.282669812243265E-001  1.298803812319200E-001 
 1.315140753133250E-001  1.331683187365649E-001  1.348433699805407E-001  1.365394907754167E-001 
 1.382569461435180E-001  1.399960044407405E-001  1.417569373984807E-001  1.435400201660964E-001 
 1.453455313538972E-001  1.471737530766798E-001  1.490249709978083E-001  1.508994743738486E-001 
 1.527975560997674E-001  1.547195127546956E-001  1.566656446482710E-001  1.586362558675617E-001 
 1.606316543245793E-001  1.626521518043932E-001  1.646980640138445E-001  1.667697106308789E-001 
 1.688674153544952E-001  1.709915059553237E-001  1.731423143268430E-001  1.753201765372364E-001 
 1.775254328819054E-001  1.797584279366407E-001  1.820195106114623E-001  1.843090342051387E-001 
 1.866273564603891E-001  1.889748396197826E-001  1.913518504823394E-001  1.937587604608421E-001 
 1.961959456398724E-001  1.986637868345723E-001  2.011626696501498E-001  2.036929845421290E-001 
 2.062551268773593E-001  2.088494969957937E-001  2.114765002730410E-001  2.141365471837083E-001 
 2.168300533655375E-001  2.195574396843490E-001  2.223191322998046E-001  2.251155627319934E-001 
 2.279471679288602E-001  2.308143903344785E-001  2.337176779581816E-001  2.366574844445685E-001 
 2.396342691443827E-001  2.426484971862905E-001  2.457006395495563E-001  2.487911731376331E-001 
 2.519205808526827E-001  2.550893516710264E-001  2.582979807195521E-001  2.615469693530769E-001 
 2.648368252326842E-001  2.681680624050493E-001  2.715412013827568E-001  2.749567692256353E-001 
 2.784152996231096E-001  2.819173329775899E-001  2.854634164889137E-001  2.890541042398432E-001 
 2.926899572826459E-001  2.963715437267557E-001  3.000994388275455E-001  3.038742250762097E-001 
 3.076964922907784E-001  3.115668377082815E-001  3.154858660780636E-001  3.194541897562813E-001 
 3.234724288015837E-001  3.275412110719955E-001  3.316611723230257E-001  3.358329563070006E-001 
 3.400572148736559E-001  3.443346080719877E-001  3.486658042533843E-001  3.530514801760621E-001 
 3.574923211108057E-001  3.619890209480466E-001  3.665422823062837E-001  3.711528166418666E-001 
 3.758213443601666E-001  3.805485949281368E-001  3.853353069882966E-001  3.901822284741447E-001 
 3.950901167270232E-001  4.000597386144581E-001  4.050918706499786E-001  4.101872991144540E-001 
 4.153468201789493E-001  4.205712400291265E-001  4.258613749912178E-001  4.312180516595724E-001 
 4.366421070258188E-001  4.421343886096441E-001  4.476957545912182E-001  4.533270739452920E-001 
 4.590292265769702E-001  4.648031034592031E-001  4.706496067720016E-001  4.765696500434016E-001 
 4.825641582922101E-001  4.886340681725354E-001  4.947803281201463E-001  5.010038985006652E-001 
 5.073057517596243E-001  5.136868725744185E-001  5.201482580081555E-001  5.266909176654561E-001 
 5.333158738502037E-001  5.400241617252793E-001  5.468168294743130E-001  5.536949384654586E-001 
 5.606595634172404E-001  5.677117925664781E-001  5.748527278383218E-001  5.820834850184382E-001 
 5.894051939273458E-001  5.968189985969586E-001  6.043260574493411E-001  6.119275434777098E-001 
 6.196246444297243E-001  6.274185629930660E-001  6.353105169833683E-001  6.433017395344995E-001 
 6.513934792912397E-001  6.595870006043905E-001  6.678835837283247E-001  6.762845250210361E-001 
 6.847911371466949E-001  6.934047492807500E-001  7.021267073176244E-001  7.109583740810038E-001 
 7.199011295367894E-001  7.289563710087166E-001  7.381255133966860E-001  7.474099893978527E-001 
 7.568112497304793E-001  7.663307633606204E-001  7.759700177316502E-001  7.857305189966725E-001 
 7.956137922538704E-001  8.056213817847955E-001  8.157548512956738E-001  8.260157841617348E-001 
 8.364057836746117E-001  8.469264732928700E-001  8.575794968956643E-001  8.683665190396073E-001 
 8.792892252188572E-001  8.903493221284740E-001  9.015485379311047E-001  9.128886225270002E-001 
 9.243713478274518E-001  9.359985080316513E-001  9.477719199070328E-001  9.596934230731584E-001 
 9.717648802891491E-001  9.839881777447558E-001  9.963652253550764E-001  1.008897957058978E+000 
 1.021588331121290E+000  1.034438330438776E+000  1.047449962849974E+000  1.060625261448923E+000 
 1.073966284902830E+000  1.087475117773757E+000  1.101153870844319E+000  1.115004681447515E+000 
 1.129029713800685E+000  1.143231159343662E+000  1.157611237081211E+000  1.172172193929730E+000 
 1.186916305068353E+000  1.201845874294445E+000  1.216963234383569E+000  1.232270747453997E+000 
 1.247770805335788E+000  1.263465829944521E+000  1.279358273659727E+000  1.295450619708065E+000 
 1.311745382551349E+000  1.328245108279421E+000  1.344952375007997E+000  1.361869793281498E+000 
 1.379000006480942E+000  1.396345691236999E+000  1.413909557848196E+000  1.431694350704428E+000 
 1.449702848715765E+000  1.467937865746656E+000  1.486402251055614E+000  1.505098889740405E+000 
 1.524030703188866E+000  1.543200649535368E+000  1.562611724123023E+000  1.582266959971734E+000 
 1.602169428252084E+000  1.622322238765237E+000  1.642728540428841E+000  1.663391521769041E+000 
 1.684314411418717E+000  1.705500478621938E+000  1.726953033744812E+000  1.748675428792724E+000 
 1.770671057934090E+000  1.792943358030720E+000  1.815495809174810E+000  1.838331935232739E+000 
 1.861455304395667E+000  1.884869529737063E+000  1.908578269777281E+000  1.932585229055181E+000 
 1.956894158706996E+000  1.981508857052444E+000  2.006433170188215E+000  2.031670992588951E+000 
 2.057226267715742E+000  2.083102988632323E+000  2.109305198628988E+000  2.135836991854349E+000 
 2.162702513955086E+000  2.189905962723677E+000  2.217451588754341E+000  2.245343696107192E+000 
 2.273586642980744E+000  2.302184842392914E+000  2.331142762870534E+000  2.360464929147600E+000 
 2.390155922872252E+000  2.420220383322660E+000  2.450663008131942E+000  2.481488554022153E+000 
 2.512701837547558E+000  2.544307735847215E+000  2.576311187407029E+000  2.608717192831425E+000 
 2.641530815624673E+000  2.674757182982099E+000  2.708401486591205E+000  2.742468983442873E+000 
 2.776964996652805E+000  2.811894916293238E+000  2.847264200235187E+000  2.883078375001232E+000 
 2.919343036629033E+000  2.956063851545764E+000  2.993246557453451E+000  3.030896964225547E+000 
 3.069020954814718E+000  3.107624486172044E+000  3.146713590177851E+000  3.186294374584156E+000 
 3.226373023969057E+000  3.266955800703065E+000  3.308049045927600E+000  3.349659180545846E+000 
 3.391792706225981E+000  3.434456206417118E+000  3.477656347377971E+000  3.521399879218442E+000 
 3.565693636954391E+000  3.610544541575567E+000  3.655959601127075E+000  3.701945911804373E+000 
 3.748510659062051E+000  3.795661118736618E+000  3.843404658183314E+000  3.891748737427319E+000 
 3.940700910329377E+000  3.990268825766087E+000  4.040460228825094E+000  4.091282962015228E+000 
 4.142744966491956E+000  4.194854283298187E+000  4.247619054620673E+000  4.301047525062299E+000 
 4.355148042930257E+000  4.409929061540541E+000  4.465399140538769E+000  4.521566947237623E+000 
 4.578441257971190E+000  4.636030959466218E+000  4.694345050230742E+000  4.753392641960091E+000 
 4.813182960960591E+000  4.873725349591245E+000  4.935029267723437E+000  4.997104294219105E+000 
 5.059960128427441E+000  5.123606591700405E+000  5.188053628927388E+000  5.253311310089060E+000 
 5.319389831830878E+000  5.386299519056311E+000  5.454050826540100E+000  5.522654340561897E+000 
 5.592120780560325E+000  5.662461000807974E+000  5.733685992107375E+000  5.805806883508308E+000 
 5.878834944046804E+000  5.952781584505882E+000  6.027658359198565E+000  6.103476967773251E+000 
 6.180249257041759E+000  6.257987222830508E+000  6.336703011854786E+000  6.416408923616789E+000 
 6.497117412327404E+000  6.578841088852171E+000  6.661592722681839E+000  6.745385243927530E+000 
 6.830231745341178E+000  6.916145484361262E+000  7.003139885184273E+000  7.091228540862355E+000 
 7.180425215427150E+000  7.270743846040545E+000  7.362198545172339E+000  7.454803602805312E+000 
 7.548573488668154E+000  7.643522854496278E+000  7.739666536321285E+000  7.837019556789080E+000 
 7.935597127507150E+000  8.035414651421505E+000  8.136487725223308E+000  8.238832141785990E+000 
 8.342463892632875E+000  8.447399170435844E+000  8.553654371545575E+000  8.661246098553390E+000 
 8.770191162885546E+000  8.880506587430011E+000  8.992209609196278E+000  9.105317682008788E+000 
 9.219848479234013E+000  9.335819896542041E+000  9.453250054702796E+000  9.572157302417368E+000 
 9.692560219185165E+000  9.814477618206860E+000  9.937928549324107E+000  1.006293230199608E+001 
 1.018950840831341E+001  1.031767664605028E+001  1.044745704175455E+001  1.057886987387711E+001 
 1.071193567594037E+001  1.084667523974657E+001  1.098310961862673E+001  1.112126013073009E+001 
 1.126114836235526E+001  1.140279617132305E+001  1.154622569039176E+001  1.169145933071560E+001 
 1.183851978534629E+001  1.198743003277910E+001  1.213821334054317E+001  1.229089326883707E+001 
 1.244549367421026E+001  1.260203871329057E+001  1.276055284655889E+001  1.292106084217105E+001 
 1.308358777982787E+001  1.324815905469409E+001  1.341480038136617E+001  1.358353779789045E+001 
 1.375439766983161E+001  1.392740669439219E+001  1.410259190458433E+001  1.427998067345347E+001 
 1.445960071835569E+001  1.464148010528847E+001  1.482564725327599E+001  1.501213093880988E+001 
 1.520096030034534E+001  1.539216484285433E+001  1.558577444243565E+001  1.578181935098307E+001 
 1.598033020091248E+001  1.618133800994798E+001  1.638487418596872E+001  1.659097053191634E+001 
 1.679965925076413E+001  1.701097295054906E+001  1.722494464946657E+001  1.744160778102998E+001 
 1.766099619929443E+001  1.788314418414657E+001  1.810808644666106E+001  1.833585813452399E+001 
 1.856649483752503E+001  1.880003259311830E+001  1.903650789205317E+001  1.927595768407629E+001 