At    ONCVPSP-4.0.1  r_core=   1.40401   1.45532   1.40401   1.50851
85.0000     25.0000      230612    zatom,zion,pspd
8      11   3     4   600     0    pspcod,pspxc,lmax,lloc,mmax,r2well
5.99000000  5.00000000  0.00000000    rchrg fchrg qchrg
2     3     3     1    nproj
3     1           extension_switch
4     4     2    nprojso
0                         1.0145832148424E+01 -3.4504723675767E-01
1  0.0000000000000E+00  7.0931693851861E-10  7.7450217350616E-09
2  1.0000000000000E-02  8.7497897736629E-02  2.4388694321712E-02
3  2.0000000000000E-02  1.7476895013433E-01  4.8805851530359E-02
4  3.0000000000000E-02  2.6158671297673E-01  7.3276641214200E-02
5  4.0000000000000E-02  3.4772555056201E-01  9.7819735481005E-02
6  5.0000000000000E-02  4.3296105544611E-01  1.2244428096308E-01
7  6.0000000000000E-02  5.1707048624767E-01  1.4714713003011E-01
8  7.0000000000000E-02  5.9983322867915E-01  1.7191040826829E-01
9  8.0000000000000E-02  6.8103128425891E-01  1.9669948753942E-01
10  9.0000000000000E-02  7.6044979030286E-01  2.2146142457519E-01
11  1.0000000000000E-01  8.3787757380980E-01  2.4612391429692E-01
12  1.1000000000000E-01  9.1310774076456E-01  2.7059479511455E-01
13  1.2000000000000E-01  9.8593830121141E-01  2.9476213061406E-01
14  1.3000000000000E-01  1.0561728292245E+00  3.1849487857323E-01
15  1.4000000000000E-01  1.1236211556488E+00  3.4164414444864E-01
16  1.5000000000000E-01  1.1881000902334E+00  3.6404500265753E-01
17  1.6000000000000E-01  1.2494341685587E+00  3.8551885544474E-01
18  1.7000000000000E-01  1.3074564179972E+00  4.0587628617692E-01
19  1.8000000000000E-01  1.3620091358694E+00  4.2492035183665E-01
20  1.9000000000000E-01  1.4129446719941E+00  4.4245024856581E-01
21  2.0000000000000E-01  1.4601262070013E+00  4.5826527458317E-01
22  2.1000000000000E-01  1.5034285170999E+00  4.7216900688947E-01
23  2.2000000000000E-01  1.5427387154934E+00  4.8397360206186E-01
24  2.3000000000000E-01  1.5779569603186E+00  4.9350412727228E-01
25  2.4000000000000E-01  1.6089971188652E+00  5.0060282554524E-01
26  2.5000000000000E-01  1.6357873779163E+00  5.0513321926061E-01
27  2.6000000000000E-01  1.6582707903396E+00  5.0698395801775E-01
28  2.7000000000000E-01  1.6764057485427E+00  5.0607232118009E-01
29  2.8000000000000E-01  1.6901663760947E+00  5.0234729163220E-01
30  2.9000000000000E-01  1.6995428296759E+00  4.9579212538537E-01
31  3.0000000000000E-01  1.7045415045534E+00  4.8642635149682E-01
32  3.1000000000000E-01  1.7051851379625E+00  4.7430714811914E-01
33  3.2000000000000E-01  1.7015128060809E+00  4.5953005313396E-01
34  3.3000000000000E-01  1.6935798116966E+00  4.4222898147947E-01
35  3.4000000000000E-01  1.6814574611536E+00  4.2257553566530E-01
36  3.5000000000000E-01  1.6652327306947E+00  4.0077761077135E-01
37  3.6000000000000E-01  1.6450078238677E+00  3.7707731012974E-01
38  3.7000000000000E-01  1.6208996231973E+00  3.5174820256882E-01
39  3.8000000000000E-01  1.5930390408136E+00  3.2509196623020E-01
40  3.9000000000000E-01  1.5615702741475E+00  2.9743447724702E-01
41  4.0000000000000E-01  1.5266499741148E+00  2.6912141369526E-01
42  4.1000000000000E-01  1.4884463344005E+00  2.4051345592908E-01
43  4.2000000000000E-01  1.4471381114883E+00  2.1198117344420E-01
44  4.3000000000000E-01  1.4029135859473E+00  1.8389969556898E-01
45  4.4000000000000E-01  1.3559694761613E+00  1.5664326839561E-01
46  4.5000000000000E-01  1.3065098161630E+00  1.3057980330445E-01
47  4.6000000000000E-01  1.2547448095026E+00  1.0606552312779E-01
48  4.7000000000000E-01  1.2008896711289E+00  8.3439810411061E-02
49  4.8000000000000E-01  1.1451634691041E+00  6.3020358381746E-02
50  4.9000000000000E-01  1.0877879776029E+00  4.5098719195877E-02
51  5.0000000000000E-01  1.0289865520770E+00  2.9936335916908E-02
52  5.1000000000000E-01  9.6898303671523E-01  1.7761134655951E-02
53  5.2000000000000E-01  9.0800071340785E-01  8.7647415719365E-03
54  5.3000000000000E-01  8.4626130035419E-01  3.1003762416265E-03
55  5.4000000000000E-01  7.8398400726540E-01  8.8145854201947E-04
56  5.5000000000000E-01  7.2138465282701E-01  2.1809509504817E-03
57  5.6000000000000E-01  6.5867484873505E-01  7.0314423894805E-03
58  5.7000000000000E-01  5.9606125323129E-01  1.5425963768159E-02
59  5.8000000000000E-01  5.3374489567030E-01  2.7319509554366E-02
60  5.9000000000000E-01  4.7192057228420E-01  4.2631224397930E-02
61  6.0000000000000E-01  4.1077631200025E-01  6.1247199363609E-02
62  6.1000000000000E-01  3.5049290994181E-01  8.3023809046035E-02
63  6.2000000000000E-01  2.9124352513036E-01  1.0779150903497E-01
64  6.3000000000000E-01  2.3319333793133E-01  1.3535900314951E-01
65  6.4000000000000E-01  1.7649926196888E-01  1.6551768180394E-01
66  6.5000000000000E-01  1.2130970459371E-01  1.9804622700047E-01
67  6.6000000000000E-01  6.7764369535383E-02  2.3271527591449E-01
68  6.7000000000000E-01  1.5994095116567E-02  2.6929203394406E-01
69  6.8000000000000E-01 -3.3879278645383E-02  3.0754472948348E-01
70  6.9000000000000E-01 -8.1743020574321E-02  3.4724680654006E-01
71  7.0000000000000E-01 -1.2749360268744E-01  3.8818075757968E-01
72  7.1000000000000E-01 -1.7103678401032E-01  4.3014150754079E-01
73  7.2000000000000E-01 -2.1228768879822E-01  4.7293927062688E-01
74  7.3000000000000E-01 -2.5117088325131E-01  5.1640181405371E-01
75  7.4000000000000E-01 -2.8762045382680E-01  5.6037607712332E-01
76  7.5000000000000E-01 -3.2158008916306E-01  6.0472910951899E-01
77  7.6000000000000E-01 -3.5300316646902E-01  6.4934830922408E-01
78  7.7000000000000E-01 -3.8185284202821E-01  6.9414095759959E-01
79  7.8000000000000E-01 -4.0810214425227E-01  7.3903306652902E-01
80  7.9000000000000E-01 -4.3173406652859E-01  7.8396756976063E-01
81  8.0000000000000E-01 -4.5274165597282E-01  8.2890190725336E-01
82  8.1000000000000E-01 -4.7112809315285E-01  8.7380506707706E-01
83  8.2000000000000E-01 -4.8690675692707E-01  9.1865416385944E-01
84  8.3000000000000E-01 -5.0010126776442E-01  9.6343064556338E-01
85  8.4000000000000E-01 -5.1074550231300E-01  1.0081162312072E+00
86  8.5000000000000E-01 -5.1888357157904E-01  1.0526886907300E+00
87  8.6000000000000E-01 -5.2456975488663E-01  1.0971175843273E+00
88  8.7000000000000E-01 -5.2786838182277E-01  1.1413600820609E+00
89  8.8000000000000E-01 -5.2885365464060E-01  1.1853569852636E+00
90  8.9000000000000E-01 -5.2760940409687E-01  1.2290290691494E+00
91  9.0000000000000E-01 -5.2422877243526E-01  1.2722738611096E+00
92  9.1000000000000E-01 -5.1881381818543E-01  1.3149629614828E+00
93  9.2000000000000E-01 -5.1147503861414E-01  1.3569400032678E+00
94  9.3000000000000E-01 -5.0233080701954E-01  1.3980193344771E+00
95  9.4000000000000E-01 -4.9150672357741E-01  1.4379854918591E+00
96  9.5000000000000E-01 -4.7913488010040E-01  1.4765935178404E+00
97  9.6000000000000E-01 -4.6535304082340E-01  1.5135701540968E+00
98  9.7000000000000E-01 -4.5030374314460E-01  1.5486159255388E+00
99  9.8000000000000E-01 -4.3413332409343E-01  1.5814081081005E+00
100  9.9000000000000E-01 -4.1699088012179E-01  1.6116045529987E+00
101  1.0000000000000E+00 -3.9902716958322E-01  1.6388483195184E+00
102  1.0100000000000E+00 -3.8039346893365E-01  1.6627730483539E+00
103  1.0200000000000E+00 -3.6124039521779E-01  1.6830089885143E+00
104  1.0300000000000E+00 -3.4171670875685E-01  1.6991895732599E+00
105  1.0400000000000E+00 -3.2196811109157E-01  1.7109584248481E+00
106  1.0500000000000E+00 -3.0213605412802E-01  1.7179766544191E+00
107  1.0600000000000E+00 -2.8235657705247E-01  1.7199303124895E+00
108  1.0700000000000E+00 -2.6275918790558E-01  1.7165378375058E+00
109  1.0800000000000E+00 -2.4346580671674E-01  1.7075573449767E+00
110  1.0900000000000E+00 -2.2458978678795E-01  1.6927935980153E+00
111  1.1000000000000E+00 -2.0623503007491E-01  1.6721045017696E+00
112  1.1100000000000E+00 -1.8849521165059E-01  1.6454069692265E+00
113  1.1200000000000E+00 -1.7145312695390E-01  1.6126820142062E+00
114  1.1300000000000E+00 -1.5518017394882E-01  1.5739789388791E+00
115  1.1400000000000E+00 -1.3973598046165E-01  1.5294184976845E+00
116  1.1500000000000E+00 -1.2516818486210E-01  1.4791949368087E+00
117  1.1600000000000E+00 -1.1151237593512E-01  1.4235768281415E+00
118  1.1700000000000E+00 -9.8792195304085E-02  1.3629066384054E+00
119  1.1800000000000E+00 -8.7019603140268E-02  1.2975989976762E+00
120  1.1900000000000E+00 -7.6195305201333E-02  1.2281376560933E+00
121  1.2000000000000E+00 -6.6309336495579E-02  1.1550711430434E+00
122  1.2100000000000E+00 -5.7341794168490E-02  1.0790071685423E+00
123  1.2200000000000E+00 -4.9263709552944E-02  1.0006058319101E+00
124  1.2300000000000E+00 -4.2038046812253E-02  9.2057172717426E-01
125  1.2400000000000E+00 -3.5620813258057E-02  8.3964505770419E-01
126  1.2500000000000E+00 -2.9962264293053E-02  7.5859189387512E-01
127  1.2600000000000E+00 -2.5008184073524E-02  6.7819372643610E-01
128  1.2700000000000E+00 -2.0701221421057E-02  5.9923648458362E-01
129  1.2800000000000E+00 -1.6982259291409E-02  5.2249920094899E-01
130  1.2900000000000E+00 -1.3791795250860E-02  4.4874251556792E-01
131  1.3000000000000E+00 -1.1071309933473E-02  3.7869721723713E-01
132  1.3100000000000E+00 -8.7645978915156E-03  3.1305305155281E-01
133  1.3200000000000E+00 -6.8190646084467E-03  2.5244769845064E-01
134  1.3300000000000E+00 -5.1868461158422E-03  1.9745745239610E-01
135  1.3400000000000E+00 -3.8280521309841E-03  1.4856332736962E-01
136  1.3500000000000E+00 -2.7128538213091E-03  1.0612481519282E-01
137  1.3600000000000E+00 -1.8094684251366E-03  7.0523527173977E-02
138  1.3700000000000E+00 -1.0953634982693E-03  4.2045035846307E-02
139  1.3800000000000E+00 -5.5824093623685E-04  2.0869158551554E-02
140  1.3900000000000E+00 -1.9508062241721E-04  7.0310840406982E-03
141  1.4000000000000E+00 -2.0093347506203E-05  6.8988540546506E-04
142  1.4100000000000E+00  2.2455023085086E-06 -7.5052761549639E-05
143  1.4200000000000E+00 -3.1337016403881E-07  1.0714131519802E-05
144  1.43  0.  0.
145  1.44  0.  0.
146  1.45  0.  0.
147  1.46  0.  0.
148  1.47  0.  0.
149  1.48  0.  0.
150  1.49  0.  0.
151  1.50  0.  0.
152  1.51  0.  0.
153  1.52  0.  0.
154  1.53  0.  0.
155  1.54  0.  0.
156  1.55  0.  0.
157  1.56  0.  0.
158  1.57  0.  0.
159  1.58  0.  0.
160  1.59  0.  0.
161  1.60  0.  0.
162  1.61  0.  0.
163  1.62  0.  0.
164  1.63  0.  0.
165  1.64  0.  0.
166  1.65  0.  0.
167  1.66  0.  0.
168  1.67  0.  0.
169  1.68  0.  0.
170  1.69  0.  0.
171  1.70  0.  0.
172  1.71  0.  0.
173  1.72  0.  0.
174  1.73  0.  0.
175  1.74  0.  0.
176  1.75  0.  0.
177  1.76  0.  0.
178  1.77  0.  0.
179  1.78  0.  0.
180  1.79  0.  0.
181  1.80  0.  0.
182  1.81  0.  0.
183  1.82  0.  0.
184  1.83  0.  0.
185  1.84  0.  0.
186  1.85  0.  0.
187  1.86  0.  0.
188  1.87  0.  0.
189  1.88  0.  0.
190  1.89  0.  0.
191  1.90  0.  0.
192  1.91  0.  0.
193  1.92  0.  0.
194  1.93  0.  0.
195  1.94  0.  0.
196  1.95  0.  0.
197  1.96  0.  0.
198  1.97  0.  0.
199  1.98  0.  0.
200  1.99  0.  0.
201  2.00  0.  0.
202  2.01  0.  0.
203  2.02  0.  0.
204  2.03  0.  0.
205  2.04  0.  0.
206  2.05  0.  0.
207  2.06  0.  0.
208  2.07  0.  0.
209  2.08  0.  0.
210  2.09  0.  0.
211  2.10  0.  0.
212  2.11  0.  0.
213  2.12  0.  0.
214  2.13  0.  0.
215  2.14  0.  0.
216  2.15  0.  0.
217  2.16  0.  0.
218  2.17  0.  0.
219  2.18  0.  0.
220  2.19  0.  0.
221  2.20  0.  0.
222  2.21  0.  0.
223  2.22  0.  0.
224  2.23  0.  0.
225  2.24  0.  0.
226  2.25  0.  0.
227  2.26  0.  0.
228  2.27  0.  0.
229  2.28  0.  0.
230  2.29  0.  0.
231  2.30  0.  0.
232  2.31  0.  0.
233  2.32  0.  0.
234  2.33  0.  0.
235  2.34  0.  0.
236  2.35  0.  0.
237  2.36  0.  0.
238  2.37  0.  0.
239  2.38  0.  0.
240  2.39  0.  0.
241  2.40  0.  0.
242  2.41  0.  0.
243  2.42  0.  0.
244  2.43  0.  0.
245  2.44  0.  0.
246  2.45  0.  0.
247  2.46  0.  0.
248  2.47  0.  0.
249  2.48  0.  0.
250  2.49  0.  0.
251  2.50  0.  0.
252  2.51  0.  0.
253  2.52  0.  0.
254  2.53  0.  0.
255  2.54  0.  0.
256  2.55  0.  0.
257  2.56  0.  0.
258  2.57  0.  0.
259  2.58  0.  0.
260  2.59  0.  0.
261  2.60  0.  0.
262  2.61  0.  0.
263  2.62  0.  0.
264  2.63  0.  0.
265  2.64  0.  0.
266  2.65  0.  0.
267  2.66  0.  0.
268  2.67  0.  0.
269  2.68  0.  0.
270  2.69  0.  0.
271  2.70  0.  0.
272  2.71  0.  0.
273  2.72  0.  0.
274  2.73  0.  0.
275  2.74  0.  0.
276  2.75  0.  0.
277  2.76  0.  0.
278  2.77  0.  0.
279  2.78  0.  0.
280  2.79  0.  0.
281  2.80  0.  0.
282  2.81  0.  0.
283  2.82  0.  0.
284  2.83  0.  0.
285  2.84  0.  0.
286  2.85  0.  0.
287  2.86  0.  0.
288  2.87  0.  0.
289  2.88  0.  0.
290  2.89  0.  0.
291  2.90  0.  0.
292  2.91  0.  0.
293  2.92  0.  0.
294  2.93  0.  0.
295  2.94  0.  0.
296  2.95  0.  0.
297  2.96  0.  0.
298  2.97  0.  0.
299  2.98  0.  0.
300  2.99  0.  0.
301  3.00  0.  0.
302  3.01  0.  0.
303  3.02  0.  0.
304  3.03  0.  0.
305  3.04  0.  0.
306  3.05  0.  0.
307  3.06  0.  0.
308  3.07  0.  0.
309  3.08  0.  0.
310  3.09  0.  0.
311  3.10  0.  0.
312  3.11  0.  0.
313  3.12  0.  0.
314  3.13  0.  0.
315  3.14  0.  0.
316  3.15  0.  0.
317  3.16  0.  0.
318  3.17  0.  0.
319  3.18  0.  0.
320  3.19  0.  0.
321  3.20  0.  0.
322  3.21  0.  0.
323  3.22  0.  0.
324  3.23  0.  0.
325  3.24  0.  0.
326  3.25  0.  0.
327  3.26  0.  0.
328  3.27  0.  0.
329  3.28  0.  0.
330  3.29  0.  0.
331  3.30  0.  0.
332  3.31  0.  0.
333  3.32  0.  0.
334  3.33  0.  0.
335  3.34  0.  0.
336  3.35  0.  0.
337  3.36  0.  0.
338  3.37  0.  0.
339  3.38  0.  0.
340  3.39  0.  0.
341  3.40  0.  0.
342  3.41  0.  0.
343  3.42  0.  0.
344  3.43  0.  0.
345  3.44  0.  0.
346  3.45  0.  0.
347  3.46  0.  0.
348  3.47  0.  0.
349  3.48  0.  0.
350  3.49  0.  0.
351  3.50  0.  0.
352  3.51  0.  0.
353  3.52  0.  0.
354  3.53  0.  0.
355  3.54  0.  0.
356  3.55  0.  0.
357  3.56  0.  0.
358  3.57  0.  0.
359  3.58  0.  0.
360  3.59  0.  0.
361  3.60  0.  0.
362  3.61  0.  0.
363  3.62  0.  0.
364  3.63  0.  0.
365  3.64  0.  0.
366  3.65  0.  0.
367  3.66  0.  0.
368  3.67  0.  0.
369  3.68  0.  0.
370  3.69  0.  0.
371  3.70  0.  0.
372  3.71  0.  0.
373  3.72  0.  0.
374  3.73  0.  0.
375  3.74  0.  0.
376  3.75  0.  0.
377  3.76  0.  0.
378  3.77  0.  0.
379  3.78  0.  0.
380  3.79  0.  0.
381  3.80  0.  0.
382  3.81  0.  0.
383  3.82  0.  0.
384  3.83  0.  0.
385  3.84  0.  0.
386  3.85  0.  0.
387  3.86  0.  0.
388  3.87  0.  0.
389  3.88  0.  0.
390  3.89  0.  0.
391  3.90  0.  0.
392  3.91  0.  0.
393  3.92  0.  0.
394  3.93  0.  0.
395  3.94  0.  0.
396  3.95  0.  0.
397  3.96  0.  0.
398  3.97  0.  0.
399  3.98  0.  0.
400  3.99  0.  0.
401  4.00  0.  0.
402  4.01  0.  0.
403  4.02  0.  0.
404  4.03  0.  0.
405  4.04  0.  0.
406  4.05  0.  0.
407  4.06  0.  0.
408  4.07  0.  0.
409  4.08  0.  0.
410  4.09  0.  0.
411  4.10  0.  0.
412  4.11  0.  0.
413  4.12  0.  0.
414  4.13  0.  0.
415  4.14  0.  0.
416  4.15  0.  0.
417  4.16  0.  0.
418  4.17  0.  0.
419  4.18  0.  0.
420  4.19  0.  0.
421  4.20  0.  0.
422  4.21  0.  0.
423  4.22  0.  0.
424  4.23  0.  0.
425  4.24  0.  0.
426  4.25  0.  0.
427  4.26  0.  0.
428  4.27  0.  0.
429  4.28  0.  0.
430  4.29  0.  0.
431  4.30  0.  0.
432  4.31  0.  0.
433  4.32  0.  0.
434  4.33  0.  0.
435  4.34  0.  0.
436  4.35  0.  0.
437  4.36  0.  0.
438  4.37  0.  0.
439  4.38  0.  0.
440  4.39  0.  0.
441  4.40  0.  0.
442  4.41  0.  0.
443  4.42  0.  0.
444  4.43  0.  0.
445  4.44  0.  0.
446  4.45  0.  0.
447  4.46  0.  0.
448  4.47  0.  0.
449  4.48  0.  0.
450  4.49  0.  0.
451  4.50  0.  0.
452  4.51  0.  0.
453  4.52  0.  0.
454  4.53  0.  0.
455  4.54  0.  0.
456  4.55  0.  0.
457  4.56  0.  0.
458  4.57  0.  0.
459  4.58  0.  0.
460  4.59  0.  0.
461  4.60  0.  0.
462  4.61  0.  0.
463  4.62  0.  0.
464  4.63  0.  0.
465  4.64  0.  0.
466  4.65  0.  0.
467  4.66  0.  0.
468  4.67  0.  0.
469  4.68  0.  0.
470  4.69  0.  0.
471  4.70  0.  0.
472  4.71  0.  0.
473  4.72  0.  0.
474  4.73  0.  0.
475  4.74  0.  0.
476  4.75  0.  0.
477  4.76  0.  0.
478  4.77  0.  0.
479  4.78  0.  0.
480  4.79  0.  0.
481  4.80  0.  0.
482  4.81  0.  0.
483  4.82  0.  0.
484  4.83  0.  0.
485  4.84  0.  0.
486  4.85  0.  0.
487  4.86  0.  0.
488  4.87  0.  0.
489  4.88  0.  0.
490  4.89  0.  0.
491  4.90  0.  0.
492  4.91  0.  0.
493  4.92  0.  0.
494  4.93  0.  0.
495  4.94  0.  0.
496  4.95  0.  0.
497  4.96  0.  0.
498  4.97  0.  0.
499  4.98  0.  0.
500  4.99  0.  0.
501  5.00  0.  0.
502  5.01  0.  0.
503  5.02  0.  0.
504  5.03  0.  0.
505  5.04  0.  0.
506  5.05  0.  0.
507  5.06  0.  0.
508  5.07  0.  0.
509  5.08  0.  0.
510  5.09  0.  0.
511  5.10  0.  0.
512  5.11  0.  0.
513  5.12  0.  0.
514  5.13  0.  0.
515  5.14  0.  0.
516  5.15  0.  0.
517  5.16  0.  0.
518  5.17  0.  0.
519  5.18  0.  0.
520  5.19  0.  0.
521  5.20  0.  0.
522  5.21  0.  0.
523  5.22  0.  0.
524  5.23  0.  0.
525  5.24  0.  0.
526  5.25  0.  0.
527  5.26  0.  0.
528  5.27  0.  0.
529  5.28  0.  0.
530  5.29  0.  0.
531  5.30  0.  0.
532  5.31  0.  0.
533  5.32  0.  0.
534  5.33  0.  0.
535  5.34  0.  0.
536  5.35  0.  0.
537  5.36  0.  0.
538  5.37  0.  0.
539  5.38  0.  0.
540  5.39  0.  0.
541  5.40  0.  0.
542  5.41  0.  0.
543  5.42  0.  0.
544  5.43  0.  0.
545  5.44  0.  0.
546  5.45  0.  0.
547  5.46  0.  0.
548  5.47  0.  0.
549  5.48  0.  0.
550  5.49  0.  0.
551  5.50  0.  0.
552  5.51  0.  0.
553  5.52  0.  0.
554  5.53  0.  0.
555  5.54  0.  0.
556  5.55  0.  0.
557  5.56  0.  0.
558  5.57  0.  0.
559  5.58  0.  0.
560  5.59  0.  0.
561  5.60  0.  0.
562  5.61  0.  0.
563  5.62  0.  0.
564  5.63  0.  0.
565  5.64  0.  0.
566  5.65  0.  0.
567  5.66  0.  0.
568  5.67  0.  0.
569  5.68  0.  0.
570  5.69  0.  0.
571  5.70  0.  0.
572  5.71  0.  0.
573  5.72  0.  0.
574  5.73  0.  0.
575  5.74  0.  0.
576  5.75  0.  0.
577  5.76  0.  0.
578  5.77  0.  0.
579  5.78  0.  0.
580  5.79  0.  0.
581  5.80  0.  0.
582  5.81  0.  0.
583  5.82  0.  0.
584  5.83  0.  0.
585  5.84  0.  0.
586  5.85  0.  0.
587  5.86  0.  0.
588  5.87  0.  0.
589  5.88  0.  0.
590  5.89  0.  0.
591  5.90  0.  0.
592  5.91  0.  0.
593  5.92  0.  0.
594  5.93  0.  0.
595  5.94  0.  0.
596  5.95  0.  0.
597  5.96  0.  0.
598  5.97  0.  0.
599  5.98  0.  0.
600  5.99  0.  0.
1                         4.5441134258460E+00 -2.3380525277847E-01 -3.4407081732738E-02
1  0.0000000000000E+00 -1.8902495679818E-09 -1.2738002838283E-08 -2.3214338055588E-08
2  1.0000000000000E-02  2.1220104521954E-03  1.7757700000894E-04 -3.5819965233952E-05
3  2.0000000000000E-02  8.4789140221997E-03  7.1898633242546E-04 -1.2681994077676E-04
4  3.0000000000000E-02  1.9043325205480E-02  1.6499675814347E-03 -2.2417146997856E-04
5  4.0000000000000E-02  3.3769595565725E-02  3.0124432256069E-03 -2.4831716957810E-04
6  5.0000000000000E-02  5.2593809077916E-02  4.8630807856081E-03 -9.1656083926897E-05
7  6.0000000000000E-02  7.5433783954194E-02  7.2713339151412E-03  3.7779500176474E-04
8  7.0000000000000E-02  1.0218908900503E-01  1.0317014910820E-02  1.3118596073346E-03
9  8.0000000000000E-02  1.3274108447848E-01  1.4087463854682E-02  2.8768974952403E-03
10  9.0000000000000E-02  1.6695299891647E-01  1.8674390724430E-02  5.2478773660494E-03
11  1.0000000000000E-01  2.0467005481937E-01  2.4170476031505E-02  8.6019821280570E-03
12  1.1000000000000E-01  2.4571965677582E-01  3.0665822642643E-02  1.3111915708099E-02
13  1.2000000000000E-01  2.8991165616302E-01  3.8244356223066E-02  1.8939089390094E-02
14  1.3000000000000E-01  3.3703870653040E-01  4.6980274082043E-02  2.6226870325058E-02
15  1.4000000000000E-01  3.8687672333651E-01  5.6934642034814E-02  3.5094075025080E-02
16  1.5000000000000E-01  4.3918546081559E-01  6.8152236210421E-02  4.5628886308188E-02
17  1.6000000000000E-01  4.9370921741813E-01  8.0658721585093E-02  5.7883363393952E-02
18  1.7000000000000E-01  5.5017767952188E-01  9.4458251517356E-02  7.1868701844610E-02
19  1.8000000000000E-01  6.0830691097993E-01  1.0953156287347E-01  8.7551383107401E-02
20  1.9000000000000E-01  6.6780049360466E-01  1.2583462968311E-01  1.0485033291586E-01
21  2.0000000000000E-01  7.2835082093225E-01  1.4329792492638E-01  1.2363518424428E-01
22  2.1000000000000E-01  7.8964054463402E-01  1.6182632533931E-01  1.4372571441059E-01
23  2.2000000000000E-01  8.5134416980353E-01  1.8129967838297E-01  1.6489249791934E-01
24  2.3000000000000E-01  9.1312979212556E-01  2.0157403412887E-01  1.8685878738123E-01
25  2.4000000000000E-01  9.7466096669856E-01  2.2248352816355E-01  2.0930360503465E-01
26  2.5000000000000E-01  1.0355986951139E+00  2.4384288511121E-01  2.3186599774559E-01
27  2.6000000000000E-01  1.0956035143683E+00  2.6545049641815E-01  2.5415037958198E-01
28  2.7000000000000E-01  1.1543376683766E+00  2.8709201102837E-01  2.7573285884877E-01
29  2.8000000000000E-01  1.2114673403265E+00  3.0854436387914E-01  2.9616842148930E-01
30  2.9000000000000E-01  1.2666649219490E+00  3.2958015510380E-01  3.1499882062799E-01
31  3.0000000000000E-01  1.3196112940109E+00  3.4997228275291E-01  3.3176100329290E-01
32  3.1000000000000E-01  1.3699980910362E+00  3.6949872399917E-01  3.4599589049630E-01
33  3.2000000000000E-01  1.4175299224557E+00  3.8794735438652E-01  3.5725731624369E-01
34  3.3000000000000E-01  1.4619265221031E+00  4.0512069187761E-01  3.6512092498439E-01
35  3.4000000000000E-01  1.5029247982414E+00  4.2084045233945E-01  3.6919282567876E-01
36  3.5000000000000E-01  1.5402807571148E+00  4.3495180571829E-01  3.6911780412014E-01
37  3.6000000000000E-01  1.5737712743705E+00  4.4732722745754E-01  3.6458690336059E-01
38  3.7000000000000E-01  1.6031956905710E+00  4.5786984761033E-01  3.5534419489931E-01
39  3.8000000000000E-01  1.6283772093734E+00  4.6651621043082E-01  3.4119258042714E-01
40  3.9000000000000E-01  1.6491640797613E+00  4.7323836977595E-01  3.2199848501272E-01
41  4.0000000000000E-01  1.6654305469083E+00  4.7804526013793E-01  2.9769532719356E-01
42  4.1000000000000E-01  1.6770775597787E+00  4.8098329923327E-01  2.6828567894065E-01
43  4.2000000000000E-01  1.6840332273506E+00  4.8213619543208E-01  2.3384205826945E-01
44  4.3000000000000E-01  1.6862530193060E+00  4.8162395152211E-01  1.9450632867938E-01
45  4.4000000000000E-01  1.6837197110911E+00  4.7960107494280E-01  1.5048771188461E-01
46  4.5000000000000E-01  1.6764430773158E+00  4.7625402325716E-01  1.0205945268361E-01
47  4.6000000000000E-01  1.6644593414555E+00  4.7179793181084E-01  4.9554206535193E-02
48  4.7000000000000E-01  1.6478303936514E+00  4.6647268782165E-01 -6.6417493059225E-03
49  4.8000000000000E-01  1.6266427919969E+00  4.6053843112829E-01 -6.6095352121631E-02
50  4.9000000000000E-01  1.6010065659692E+00  4.5427057611020E-01 -1.2833448330735E-01
51  5.0000000000000E-01  1.5710538435494E+00  4.4795446151200E-01 -1.9285641520990E-01
52  5.1000000000000E-01  1.5369373260019E+00  4.4187974475401E-01 -2.5913678153691E-01
53  5.2000000000000E-01  1.4988286362156E+00  4.3633466452131E-01 -3.2663886445685E-01
54  5.3000000000000E-01  1.4569165678891E+00  4.3160029979936E-01 -3.9482298319255E-01
55  5.4000000000000E-01  1.4114052636514E+00  4.2794495492432E-01 -4.6315576572239E-01
56  5.5000000000000E-01  1.3625123504334E+00  4.2561879857581E-01 -5.3111908726413E-01
57  5.6000000000000E-01  1.3104670600305E+00  4.2484887995981E-01 -5.9821846654302E-01
58  5.7000000000000E-01  1.2555083618516E+00  4.2583463778744E-01 -6.6399072329870E-01
59  5.8000000000000E-01  1.1978831333404E+00  4.2874400719460E-01 -7.2801071784018E-01
60  5.9000000000000E-01  1.1378443915345E+00  4.3371021668600E-01 -7.8989701533132E-01
61  6.0000000000000E-01  1.0756496067397E+00  4.4082935180070E-01 -8.4931634341093E-01
62  6.1000000000000E-01  1.0115591163987E+00  4.5015874482415E-01 -9.0598674114117E-01
63  6.2000000000000E-01  9.4583465400196E-01  4.6171623090112E-01 -9.5967932945669E-01
64  6.3000000000000E-01  8.7873800440225E-01  4.7548029076614E-01 -1.0102186675163E+00
65  6.4000000000000E-01  8.1052979323027E-01  4.9139107946648E-01 -1.0574816948272E+00
66  6.5000000000000E-01  7.4146841436814E-01  5.0935231939459E-01 -1.1013952948711E+00
67  6.6000000000000E-01  6.7180909570150E-01  5.2923401516795E-01 -1.1419325513591E+00
68  6.7000000000000E-01  6.0180309973774E-01  5.5087592789375E-01 -1.1791078022823E+00
69  6.8000000000000E-01  5.3169705223389E-01  5.7409172761686E-01 -1.2129706288001E+00
70  6.9000000000000E-01  4.6173238880920E-01  5.9867372573536E-01 -1.2435989448678E+00
71  7.0000000000000E-01  3.9214490670329E-01  6.2439807430257E-01 -1.2710913786436E+00
72  7.1000000000000E-01  3.2316440645101E-01  6.5103030680286E-01 -1.2955591574370E+00
73  7.2000000000000E-01  2.5501440634115E-01  6.7833108551316E-01 -1.3171177237060E+00
74  7.3000000000000E-01  1.8791191115537E-01  7.0606201420850E-01 -1.3358783199192E+00
75  7.4000000000000E-01  1.2206721588387E-01  7.3399137193029E-01 -1.3519397846315E+00
76  7.5000000000000E-01  5.7683724905208E-02  7.6189962392654E-01 -1.3653808006728E+00
77  7.6000000000000E-01 -5.0422324914977E-03  7.8958456973260E-01 -1.3762528288584E+00
78  7.7000000000000E-01 -6.5921608382005E-02  8.1686599564389E-01 -1.3845739471720E+00
79  7.8000000000000E-01 -1.2477288086902E-01  8.4358970941374E-01 -1.3903237961736E+00
80  7.9000000000000E-01 -1.8142235163754E-01  8.6963084868507E-01 -1.3934398068086E+00
81  8.0000000000000E-01 -2.3570450834661E-01  8.9489637115117E-01 -1.3938148573403E+00
82  8.1000000000000E-01 -2.8746246082045E-01  9.1932665339009E-01 -1.3912964724121E+00
83  8.2000000000000E-01 -3.3654845667946E-01  9.4289614631142E-01 -1.3856876400138E+00
84  8.3000000000000E-01 -3.8282447847228E-01  9.6561305772694E-01 -1.3767492822013E+00
85  8.4000000000000E-01 -4.2616292062599E-01  9.8751805619614E-01 -1.3642043737070E+00
86  8.5000000000000E-01 -4.6644734072075E-01  1.0086820144558E+00 -1.3477436600597E+00
87  8.6000000000000E-01 -5.0357327581956E-01  1.0292028348595E+00 -1.3270328844937E+00
88  8.7000000000000E-01 -5.3744911094533E-01  1.0492014227520E+00 -1.3017213917983E+00
89  8.8000000000000E-01 -5.6799698339615E-01  1.0688168960204E+00 -1.2714519383370E+00
90  8.9000000000000E-01 -5.9515370352372E-01  1.0882011396563E+00 -1.2358715017282E+00
91  9.0000000000000E-01 -6.1887166995735E-01  1.1075128325062E+00 -1.1946428520376E+00
92  9.1000000000000E-01 -6.3911975511957E-01  1.1269110890287E+00 -1.1474566196217E+00
93  9.2000000000000E-01 -6.5588413531884E-01  1.1465488713891E+00 -1.0940435737165E+00
94  9.3000000000000E-01 -6.6916903877768E-01  1.1665663362665E+00 -1.0341868110993E+00
95  9.4000000000000E-01 -6.7899738470416E-01  1.1870842860567E+00 -9.6773354614741E-01
96  9.5000000000000E-01 -6.8541128696785E-01  1.2081978955408E+00 -8.9460619269662E-01
97  9.6000000000000E-01 -6.8847239710996E-01  1.2299708824456E+00 -8.1481243445152E-01
98  9.7000000000000E-01 -6.8826206329312E-01  1.2524302836651E+00 -7.2845399430311E-01
99  9.8000000000000E-01 -6.8488128435764E-01  1.2755619883048E+00 -6.3573383363225E-01
100  9.9000000000000E-01 -6.7845044135509E-01  1.2993071643507E+00 -5.3696154016293E-01
101  1.0000000000000E+00 -6.6910879272055E-01  1.3235596979184E+00 -4.3255669671035E-01
102  1.0100000000000E+00 -6.5701372354731E-01  1.3481647430649E+00 -3.2305006256816E-01
103  1.0200000000000E+00 -6.4233974415952E-01  1.3729184564572E+00 -2.0908244356654E-01
104  1.0300000000000E+00 -6.2527723823495E-01  1.3975689653258E+00 -9.1401175035126E-02
105  1.0400000000000E+00 -6.0603096600361E-01  1.4218185896297E+00  2.9145806984474E-02
106  1.0500000000000E+00 -5.8481833343014E-01  1.4453273107930E+00  1.5161827792577E-01
107  1.0600000000000E+00 -5.6186744364083E-01  1.4677174504605E+00  2.7499433835613E-01
108  1.0700000000000E+00 -5.3741495206989E-01  1.4885794940389E+00  3.9818319408882E-01
109  1.0800000000000E+00 -5.1170375174791E-01  1.5074789660142E+00  5.2003991634270E-01
110  1.0900000000000E+00 -4.8498051970378E-01  1.5239642378979E+00  6.3938194721612E-01
111  1.1000000000000E+00 -4.5749315951362E-01  1.5375751255958E+00  7.5500707128529E-01
112  1.1100000000000E+00 -4.2948817846678E-01  1.5478521118204E+00  8.6571253502157E-01
113  1.1200000000000E+00 -4.0120804056801E-01  1.5543460111881E+00  9.7031496253735E-01
114  1.1300000000000E+00 -3.7288853855186E-01  1.5566278814792E+00  1.0676706900596E+00
115  1.1400000000000E+00 -3.4475622920288E-01  1.5542989744575E+00  1.1566961229976E+00
116  1.1500000000000E+00 -3.1702597649652E-01  1.5470005140080E+00  1.2363877091900E+00
117  1.1600000000000E+00 -2.8989864637877E-01  1.5344230883040E+00  1.3058411201896E+00
118  1.1700000000000E+00 -2.6355899538062E-01  1.5163154463665E+00  1.3642692394690E+00
119  1.1800000000000E+00 -2.3817379271864E-01  1.4924924977467E+00  1.4110185722769E+00
120  1.1900000000000E+00 -2.1389021212693E-01  1.4628423269221E+00  1.4455837161368E+00
121  1.2000000000000E+00 -1.9083452539806E-01  1.4273320513387E+00  1.4676195636721E+00
122  1.2100000000000E+00 -1.6911112463613E-01  1.3860123731987E+00  1.4769509493612E+00
123  1.2200000000000E+00 -1.4880189453254E-01  1.3390207000949E+00  1.4735794990135E+00
124  1.2300000000000E+00 -1.2996594976594E-01  1.2865827375192E+00  1.4576874935563E+00
125  1.2400000000000E+00 -1.1263974596782E-01  1.2290124867830E+00  1.4296386164983E+00
126  1.2500000000000E+00 -9.6837565703957E-02  1.1667106144102E+00  1.3899755161680E+00
127  1.2600000000000E+00 -8.2552373814709E-02  1.1001611925495E+00  1.3394141775498E+00
128  1.2700000000000E+00 -6.9757029279137E-02  1.0299268441694E+00  1.2788351638490E+00
129  1.2800000000000E+00 -5.8405833736288E-02  9.5664236066927E-01  1.2092718528104E+00
130  1.2900000000000E+00 -4.8436390061997E-02  8.8100689232446E-01  1.1318958558776E+00
131  1.3000000000000E+00 -3.9771738040309E-02  8.0377484325305E-01  1.0479998687583E+00
132  1.3100000000000E+00 -3.2322728393227E-02  7.2574563132899E-01  9.5897825788603E-01
133  1.3200000000000E+00 -2.5990591337084E-02  6.4775249915099E-01  8.6630573767326E-01
134  1.3300000000000E+00 -2.0669651519631E-02  5.7065058429752E-01  7.7151453734266E-01
135  1.3400000000000E+00 -1.6250137772629E-02  4.9530447506900E-01  6.7617049237292E-01