At    ONCVPSP-4.0.1  r_core=   1.40401   1.45532   1.40401   1.50851
85.0000     25.0000      220712    zatom,zion,pspd
8      11   3     4   600     0    pspcod,pspxc,lmax,lloc,mmax,r2well
5.99000000  5.00000000  0.00000000    rchrg fchrg qchrg
2     2     2     1     0    nproj
1     1           extension_switch
0                         1.0107309669817E+01 -3.4933851454506E-01
1  0.0000000000000E+00  7.1872996443290E-10  7.6221784162112E-09
2  1.0000000000000E-02  8.7650124987140E-02  2.4012571063535E-02
3  2.0000000000000E-02  1.7507241733371E-01  4.8054364822910E-02
4  3.0000000000000E-02  2.6203944678175E-01  7.2151361159617E-02
5  4.0000000000000E-02  3.4832459419287E-01  9.6323142012604E-02
6  5.0000000000000E-02  4.3370247280368E-01  1.2057990960798E-01
7  6.0000000000000E-02  5.1794936778779E-01  1.4491975973353E-01
8  7.0000000000000E-02  6.0084369935899E-01  1.6932628587734E-01
9  8.0000000000000E-02  6.8216651393118E-01  1.9376658242741E-01
10  9.0000000000000E-02  7.6170200698322E-01  2.1818970592015E-01
11  1.0000000000000E-01  8.3923808027933E-01  2.4252564273096E-01
12  1.1000000000000E-01  9.1456693499115E-01  2.6668481985379E-01
13  1.2000000000000E-01  9.8748570108087E-01  2.9055818277669E-01
14  1.3000000000000E-01  1.0577971020626E+00  3.1401785120500E-01
15  1.4000000000000E-01  1.1253101529902E+00  3.3691834980745E-01
16  1.5000000000000E-01  1.1898408882510E+00  3.5909839756196E-01
17  1.6000000000000E-01  1.2512131145100E+00  3.8038322596054E-01
18  1.7000000000000E-01  1.3092591829717E+00  4.0058738359343E-01
19  1.8000000000000E-01  1.3638207740340E+00  4.1951797275599E-01
20  1.9000000000000E-01  1.4147496864382E+00  4.3697825297641E-01
21  2.0000000000000E-01  1.4619086221713E+00  4.5277153699145E-01
22  2.1000000000000E-01  1.5051719577013E+00  4.6670529691593E-01
23  2.2000000000000E-01  1.5444264916134E+00  4.7859539234157E-01
24  2.3000000000000E-01  1.5795721584002E+00  4.8827032800375E-01
25  2.4000000000000E-01  1.6105226980384E+00  4.9557544657536E-01
26  2.5000000000000E-01  1.6372062710701E+00  5.0037696214100E-01
27  2.6000000000000E-01  1.6595660092010E+00  5.0256574198897E-01
28  2.7000000000000E-01  1.6775604919219E+00  5.0206074849826E-01
29  2.8000000000000E-01  1.6911641403545E+00  4.9881205901892E-01
30  2.9000000000000E-01  1.7003675204016E+00  4.9280338962393E-01
31  3.0000000000000E-01  1.7051775483253E+00  4.8405405828855E-01
32  3.1000000000000E-01  1.7056175930831E+00  4.7262033422960E-01
33  3.2000000000000E-01  1.7017274710716E+00  4.5859613257729E-01
34  3.3000000000000E-01  1.6935633303645E+00  4.4211302699494E-01
35  3.4000000000000E-01  1.6811974230349E+00  4.2333956701962E-01
36  3.5000000000000E-01  1.6647177657047E+00  4.0247990146687E-01
37  3.6000000000000E-01  1.6442276900377E+00  3.7977172391003E-01
38  3.7000000000000E-01  1.6198452864419E+00  3.5548357068992E-01
39  3.8000000000000E-01  1.5917027457623E+00  3.2991151581869E-01
40  3.9000000000000E-01  1.5599456051745E+00  3.0337532020458E-01
41  4.0000000000000E-01  1.5247319058252E+00  2.7621410455237E-01
42  4.1000000000000E-01  1.4862312709639E+00  2.4878162581919E-01
43  4.2000000000000E-01  1.4446239143575E+00  2.2144124598879E-01
44  4.3000000000000E-01  1.4000995896570E+00  1.9456068896315E-01
45  4.4000000000000E-01  1.3528564920611E+00  1.6850668639306E-01
46  4.5000000000000E-01  1.3031001241078E+00  1.4363961615589E-01
47  4.6000000000000E-01  1.2510421376850E+00  1.2030823786005E-01
48  4.7000000000000E-01  1.1968991644044E+00  9.8844628183195E-02
49  4.8000000000000E-01  1.1408916463130E+00  7.9559415053304E-02
50  4.9000000000000E-01  1.0832426785419E+00  6.2737403726508E-02
51  5.0000000000000E-01  1.0241768749078E+00  4.8633679817565E-02
52  5.1000000000000E-01  9.6391926671893E-01  3.7470264460896E-02
53  5.2000000000000E-01  9.0269424409630E-01  2.9433385225124E-02
54  5.3000000000000E-01  8.4072454803590E-01  2.4671413413189E-02
55  5.4000000000000E-01  7.7823032022726E-01  2.3293504231510E-02
56  5.5000000000000E-01  7.1542821633632E-01  2.5368961305801E-02
57  5.6000000000000E-01  6.5253058708700E-01  3.0927331485338E-02
58  5.7000000000000E-01  5.8974473006509E-01  3.9959220148480E-02
59  5.8000000000000E-01  5.2727221375301E-01  5.2417801648347E-02
60  5.9000000000000E-01  4.6530827391535E-01  6.8220984463016E-02
61  6.0000000000000E-01  4.0404128112418E-01  8.7254176377841E-02
62  6.1000000000000E-01  3.4365227696913E-01  1.0937358195085E-01
63  6.2000000000000E-01  2.8431457536808E-01  1.3440995289357E-01
64  6.3000000000000E-01  2.2619342440424E-01  1.6217270211262E-01
65  6.4000000000000E-01  1.6944572328639E-01  1.9245428422933E-01
66  6.5000000000000E-01  1.1421978837861E-01  2.2503473962662E-01
67  6.6000000000000E-01  6.0655161787674E-02  2.5968629560238E-01
68  6.7000000000000E-01  8.8824557395670E-03  2.9617791714021E-01
69  6.8000000000000E-01 -4.0976774074917E-02  3.3427970118151E-01
70  6.9000000000000E-01 -8.8810132851482E-02  3.7376701209053E-01
71  7.0000000000000E-01 -1.3451447503353E-01  4.1442426218081E-01
72  7.1000000000000E-01 -1.7799598245387E-01  4.5604824960001E-01
73  7.2000000000000E-01 -2.1917023731123E-01  4.9845097638346E-01
74  7.3000000000000E-01 -2.5796229416471E-01  5.4146188186372E-01
75  7.4000000000000E-01 -2.9430675412697E-01  5.8492944060702E-01
76  7.5000000000000E-01 -3.2814784332961E-01  6.2872208933351E-01
77  7.6000000000000E-01 -3.5943949655180E-01  6.7272846353759E-01
78  7.7000000000000E-01 -3.8814544567778E-01  7.1685694139481E-01
79  7.8000000000000E-01 -4.1423931141233E-01  7.6103450965033E-01
80  7.9000000000000E-01 -4.3770469547171E-01  8.0520498314148E-01
81  8.0000000000000E-01 -4.5853526931266E-01  8.4932662602725E-01
82  8.1000000000000E-01 -4.7673485439814E-01  8.9336923829956E-01
83  8.2000000000000E-01 -4.9231748805666E-01  9.3731078536962E-01
84  8.3000000000000E-01 -5.0530746820111E-01  9.8113366111651E-01
85  8.4000000000000E-01 -5.1573936955848E-01  1.0248206854458E+00
86  8.5000000000000E-01 -5.2365802364690E-01  1.0683509458617E+00
87  8.6000000000000E-01 -5.2911845453725E-01  1.1116955985834E+00
88  8.7000000000000E-01 -5.3218576246739E-01  1.1548137481604E+00
89  8.8000000000000E-01 -5.3293494764433E-01  1.1976485252449E+00
90  8.9000000000000E-01 -5.3145066707681E-01  1.2401234801004E+00
91  9.0000000000000E-01 -5.2782691802229E-01  1.2821394045725E+00
92  9.1000000000000E-01 -5.2216664260167E-01  1.3235716876712E+00
93  9.2000000000000E-01 -5.1458124931453E-01  1.3642682997550E+00
94  9.3000000000000E-01 -5.0519004855906E-01  1.4040484877332E+00
95  9.4000000000000E-01 -4.9411960079825E-01  1.4427022489665E+00
96  9.5000000000000E-01 -4.8150297768725E-01  1.4799906349282E+00
97  9.6000000000000E-01 -4.6747893825253E-01  1.5156469175366E+00
98  9.7000000000000E-01 -4.5219102405491E-01  1.5493786317477E+00
99  9.8000000000000E-01 -4.3578657913522E-01  1.5808704879236E+00
100  9.9000000000000E-01 -4.1841570239286E-01  1.6097881270896E+00
101  1.0000000000000E+00 -4.0023014184094E-01  1.6357826719079E+00
102  1.0100000000000E+00 -3.8138214187512E-01  1.6584960064827E+00
103  1.0200000000000E+00 -3.6202325624682E-01  1.6775666993889E+00
104  1.0300000000000E+00 -3.4230314080366E-01  1.6926364670526E+00
105  1.0400000000000E+00 -3.2236834121686E-01  1.7033570591702E+00
106  1.0500000000000E+00 -3.0236109182379E-01  1.7093974346182E+00
107  1.0600000000000E+00 -2.8241814234422E-01  1.7104510856186E+00
108  1.0700000000000E+00 -2.6266962956099E-01  1.7062433600321E+00
109  1.0800000000000E+00 -2.4323801106994E-01  1.6965386268074E+00
110  1.0900000000000E+00 -2.2423707789181E-01  1.6811471279475E+00
111  1.1000000000000E+00 -2.0577106209271E-01  1.6599313619854E+00
112  1.1100000000000E+00 -1.8793385458742E-01  1.6328118488899E+00
113  1.1200000000000E+00 -1.7080834700434E-01  1.5997721345263E+00
114  1.1300000000000E+00 -1.5446590989550E-01  1.5608629041335E+00
115  1.1400000000000E+00 -1.3896601769616E-01  1.5162050885998E+00
116  1.1500000000000E+00 -1.2435602871178E-01  1.4659918643278E+00
117  1.1600000000000E+00 -1.1067112606344E-01  1.4104894669299E+00
118  1.1700000000000E+00 -9.7934423006218E-02  1.3500367604278E+00
119  1.1800000000000E+00 -8.6157233377130E-02  1.2850435267856E+00
120  1.1900000000000E+00 -7.5339505203629E-02  1.2159874647926E+00
121  1.2000000000000E+00 -6.5470412723402E-02  1.1434099123970E+00
122  1.2100000000000E+00 -5.6529099332204E-02  1.0679103316264E+00
123  1.2200000000000E+00 -4.8485561287741E-02  9.9013962019816E-01
124  1.2300000000000E+00 -4.1301659453792E-02  9.1079233786987E-01
125  1.2400000000000E+00 -3.4932243991743E-02  8.3059795828355E-01
126  1.2500000000000E+00 -2.9326374747629E-02  7.5031127800311E-01
127  1.2600000000000E+00 -2.4428618204172E-02  6.7070213301838E-01
128  1.2700000000000E+00 -2.0180400281731E-02  5.9254458904743E-01
129  1.2800000000000E+00 -1.6521393035101E-02  5.1660578495818E-01
130  1.2900000000000E+00 -1.3390912424553E-02  4.4363461832329E-01
131  1.3000000000000E+00 -1.0729303856506E-02  3.7435046834888E-01
132  1.3100000000000E+00 -8.4792896193721E-03  3.0943218174142E-01
133  1.3200000000000E+00 -6.5872817943583E-03  2.4950722650504E-01
134  1.3300000000000E+00 -5.0045164198491E-03  1.9514251947375E-01
135  1.3400000000000E+00 -3.6903168279089E-03  1.4681112748790E-01
136  1.3500000000000E+00 -2.6141949024430E-03  1.0486649775070E-01
137  1.3600000000000E+00 -1.7438075355240E-03  6.9683466233542E-02
138  1.3700000000000E+00 -1.0562050235148E-03  4.1542216188141E-02
139  1.3800000000000E+00 -5.3881999879925E-04  2.0618746343399E-02
140  1.3900000000000E+00 -1.8854727387915E-04  6.9464835444690E-03
141  1.4000000000000E+00 -1.9447600204419E-05  6.8156028206661E-04
142  1.4100000000000E+00  2.1781298243023E-06 -7.4147726256300E-05
143  1.4200000000000E+00 -3.0365388104062E-07  1.0584985971318E-05
144  1.43 -0. -0.
145  1.44  0.  0.
146  1.45  0.  0.
147  1.46  0.  0.
148  1.47  0.  0.
149  1.48  0.  0.
150  1.49  0.  0.
151  1.50  0.  0.
152  1.51  0.  0.
153  1.52  0.  0.
154  1.53  0.  0.
155  1.54  0.  0.
156  1.55  0.  0.
157  1.56  0.  0.
158  1.57  0.  0.
159  1.58  0.  0.
160  1.59  0.  0.
161  1.60  0.  0.
162  1.61  0.  0.
163  1.62  0.  0.
164  1.63  0.  0.
165  1.64  0.  0.
166  1.65  0.  0.
167  1.66  0.  0.
168  1.67  0.  0.
169  1.68  0.  0.
170  1.69  0.  0.
171  1.70  0.  0.
172  1.71  0.  0.
173  1.72  0.  0.
174  1.73  0.  0.
175  1.74  0.  0.
176  1.75  0.  0.
177  1.76  0.  0.
178  1.77  0.  0.
179  1.78  0.  0.
180  1.79  0.  0.
181  1.80  0.  0.
182  1.81  0.  0.
183  1.82  0.  0.
184  1.83  0.  0.
185  1.84  0.  0.
186  1.85  0.  0.
187  1.86  0.  0.
188  1.87  0.  0.
189  1.88  0.  0.
190  1.89  0.  0.
191  1.90  0.  0.
192  1.91  0.  0.
193  1.92  0.  0.
194  1.93  0.  0.
195  1.94  0.  0.
196  1.95  0.  0.
197  1.96  0.  0.
198  1.97  0.  0.
199  1.98  0.  0.
200  1.99  0.  0.
201  2.00  0.  0.
202  2.01  0.  0.
203  2.02  0.  0.
204  2.03  0.  0.
205  2.04  0.  0.
206  2.05  0.  0.
207  2.06  0.  0.
208  2.07  0.  0.
209  2.08  0.  0.
210  2.09  0.  0.
211  2.10  0.  0.
212  2.11  0.  0.
213  2.12  0.  0.
214  2.13  0.  0.
215  2.14  0.  0.
216  2.15  0.  0.
217  2.16  0.  0.
218  2.17  0.  0.
219  2.18  0.  0.
220  2.19  0.  0.
221  2.20  0.  0.
222  2.21  0.  0.
223  2.22  0.  0.
224  2.23  0.  0.
225  2.24  0.  0.
226  2.25  0.  0.
227  2.26  0.  0.
228  2.27  0.  0.
229  2.28  0.  0.
230  2.29  0.  0.
231  2.30  0.  0.
232  2.31  0.  0.
233  2.32  0.  0.
234  2.33  0.  0.
235  2.34  0.  0.
236  2.35  0.  0.
237  2.36  0.  0.
238  2.37  0.  0.
239  2.38  0.  0.
240  2.39  0.  0.
241  2.40  0.  0.
242  2.41  0.  0.
243  2.42  0.  0.
244  2.43  0.  0.
245  2.44  0.  0.
246  2.45  0.  0.
247  2.46  0.  0.
248  2.47  0.  0.
249  2.48  0.  0.
250  2.49  0.  0.
251  2.50  0.  0.
252  2.51  0.  0.
253  2.52  0.  0.
254  2.53  0.  0.
255  2.54  0.  0.
256  2.55  0.  0.
257  2.56  0.  0.
258  2.57  0.  0.
259  2.58  0.  0.
260  2.59  0.  0.
261  2.60  0.  0.
262  2.61  0.  0.
263  2.62  0.  0.
264  2.63  0.  0.
265  2.64  0.  0.
266  2.65  0.  0.
267  2.66  0.  0.
268  2.67  0.  0.
269  2.68  0.  0.
270  2.69  0.  0.
271  2.70  0.  0.
272  2.71  0.  0.
273  2.72  0.  0.
274  2.73  0.  0.
275  2.74  0.  0.
276  2.75  0.  0.
277  2.76  0.  0.
278  2.77  0.  0.
279  2.78  0.  0.
280  2.79  0.  0.
281  2.80  0.  0.
282  2.81  0.  0.
283  2.82  0.  0.
284  2.83  0.  0.
285  2.84  0.  0.
286  2.85  0.  0.
287  2.86  0.  0.
288  2.87  0.  0.
289  2.88  0.  0.
290  2.89  0.  0.
291  2.90  0.  0.
292  2.91  0.  0.
293  2.92  0.  0.
294  2.93  0.  0.
295  2.94  0.  0.
296  2.95  0.  0.
297  2.96  0.  0.
298  2.97  0.  0.
299  2.98  0.  0.
300  2.99  0.  0.
301  3.00  0.  0.
302  3.01  0.  0.
303  3.02  0.  0.
304  3.03  0.  0.
305  3.04  0.  0.
306  3.05  0.  0.
307  3.06  0.  0.
308  3.07  0.  0.
309  3.08  0.  0.
310  3.09  0.  0.
311  3.10  0.  0.
312  3.11  0.  0.
313  3.12  0.  0.
314  3.13  0.  0.
315  3.14  0.  0.
316  3.15  0.  0.
317  3.16  0.  0.
318  3.17  0.  0.
319  3.18  0.  0.
320  3.19  0.  0.
321  3.20  0.  0.
322  3.21  0.  0.
323  3.22  0.  0.
324  3.23  0.  0.
325  3.24  0.  0.
326  3.25  0.  0.
327  3.26  0.  0.
328  3.27  0.  0.
329  3.28  0.  0.
330  3.29  0.  0.
331  3.30  0.  0.
332  3.31  0.  0.
333  3.32  0.  0.
334  3.33  0.  0.
335  3.34  0.  0.
336  3.35  0.  0.
337  3.36  0.  0.
338  3.37  0.  0.
339  3.38  0.  0.
340  3.39  0.  0.
341  3.40  0.  0.
342  3.41  0.  0.
343  3.42  0.  0.
344  3.43  0.  0.
345  3.44  0.  0.
346  3.45  0.  0.
347  3.46  0.  0.
348  3.47  0.  0.
349  3.48  0.  0.
350  3.49  0.  0.
351  3.50  0.  0.
352  3.51  0.  0.
353  3.52  0.  0.
354  3.53  0.  0.
355  3.54  0.  0.
356  3.55  0.  0.
357  3.56  0.  0.
358  3.57  0.  0.
359  3.58  0.  0.
360  3.59  0.  0.
361  3.60  0.  0.
362  3.61  0.  0.
363  3.62  0.  0.
364  3.63  0.  0.
365  3.64  0.  0.
366  3.65  0.  0.
367  3.66  0.  0.
368  3.67  0.  0.
369  3.68  0.  0.
370  3.69  0.  0.
371  3.70  0.  0.
372  3.71  0.  0.
373  3.72  0.  0.
374  3.73  0.  0.
375  3.74  0.  0.
376  3.75  0.  0.
377  3.76  0.  0.
378  3.77  0.  0.
379  3.78  0.  0.
380  3.79  0.  0.
381  3.80  0.  0.
382  3.81  0.  0.
383  3.82  0.  0.
384  3.83  0.  0.
385  3.84  0.  0.
386  3.85  0.  0.
387  3.86  0.  0.
388  3.87  0.  0.
389  3.88  0.  0.
390  3.89  0.  0.
391  3.90  0.  0.
392  3.91  0.  0.
393  3.92  0.  0.
394  3.93  0.  0.
395  3.94  0.  0.
396  3.95  0.  0.
397  3.96  0.  0.
398  3.97  0.  0.
399  3.98  0.  0.
400  3.99  0.  0.
401  4.00  0.  0.
402  4.01  0.  0.
403  4.02  0.  0.
404  4.03  0.  0.
405  4.04  0.  0.
406  4.05  0.  0.
407  4.06  0.  0.
408  4.07  0.  0.
409  4.08  0.  0.
410  4.09  0.  0.
411  4.10  0.  0.
412  4.11  0.  0.
413  4.12  0.  0.
414  4.13  0.  0.
415  4.14  0.  0.
416  4.15  0.  0.
417  4.16  0.  0.
418  4.17  0.  0.
419  4.18  0.  0.
420  4.19  0.  0.
421  4.20  0.  0.
422  4.21  0.  0.
423  4.22  0.  0.
424  4.23  0.  0.
425  4.24  0.  0.
426  4.25  0.  0.
427  4.26  0.  0.
428  4.27  0.  0.
429  4.28  0.  0.
430  4.29  0.  0.
431  4.30  0.  0.
432  4.31  0.  0.
433  4.32  0.  0.
434  4.33  0.  0.
435  4.34  0.  0.
436  4.35  0.  0.
437  4.36  0.  0.
438  4.37  0.  0.
439  4.38  0.  0.
440  4.39  0.  0.
441  4.40  0.  0.
442  4.41  0.  0.
443  4.42  0.  0.
444  4.43  0.  0.
445  4.44  0.  0.
446  4.45  0.  0.
447  4.46  0.  0.
448  4.47  0.  0.
449  4.48  0.  0.
450  4.49  0.  0.
451  4.50  0.  0.
452  4.51  0.  0.
453  4.52  0.  0.
454  4.53  0.  0.
455  4.54  0.  0.
456  4.55  0.  0.
457  4.56  0.  0.
458  4.57  0.  0.
459  4.58  0.  0.
460  4.59  0.  0.
461  4.60  0.  0.
462  4.61  0.  0.
463  4.62  0.  0.
464  4.63  0.  0.
465  4.64  0.  0.
466  4.65  0.  0.
467  4.66  0.  0.
468  4.67  0.  0.
469  4.68  0.  0.
470  4.69  0.  0.
471  4.70  0.  0.
472  4.71  0.  0.
473  4.72  0.  0.
474  4.73  0.  0.
475  4.74  0.  0.
476  4.75  0.  0.
477  4.76  0.  0.
478  4.77  0.  0.
479  4.78  0.  0.
480  4.79  0.  0.
481  4.80  0.  0.
482  4.81  0.  0.
483  4.82  0.  0.
484  4.83  0.  0.
485  4.84  0.  0.
486  4.85  0.  0.
487  4.86  0.  0.
488  4.87  0.  0.
489  4.88  0.  0.
490  4.89  0.  0.
491  4.90  0.  0.
492  4.91  0.  0.
493  4.92  0.  0.
494  4.93  0.  0.
495  4.94  0.  0.
496  4.95  0.  0.
497  4.96  0.  0.
498  4.97  0.  0.
499  4.98  0.  0.
500  4.99  0.  0.
501  5.00  0.  0.
502  5.01  0.  0.
503  5.02  0.  0.
504  5.03  0.  0.
505  5.04  0.  0.
506  5.05  0.  0.
507  5.06  0.  0.
508  5.07  0.  0.
509  5.08  0.  0.
510  5.09  0.  0.
511  5.10  0.  0.
512  5.11  0.  0.
513  5.12  0.  0.
514  5.13  0.  0.
515  5.14  0.  0.
516  5.15  0.  0.
517  5.16  0.  0.
518  5.17  0.  0.
519  5.18  0.  0.
520  5.19  0.  0.
521  5.20  0.  0.
522  5.21  0.  0.
523  5.22  0.  0.
524  5.23  0.  0.
525  5.24  0.  0.
526  5.25  0.  0.
527  5.26  0.  0.
528  5.27  0.  0.
529  5.28  0.  0.
530  5.29  0.  0.
531  5.30  0.  0.
532  5.31  0.  0.
533  5.32  0.  0.
534  5.33  0.  0.
535  5.34  0.  0.
536  5.35  0.  0.
537  5.36  0.  0.
538  5.37  0.  0.
539  5.38  0.  0.
540  5.39  0.  0.
541  5.40  0.  0.
542  5.41  0.  0.
543  5.42  0.  0.
544  5.43  0.  0.
545  5.44  0.  0.
546  5.45  0.  0.
547  5.46  0.  0.
548  5.47  0.  0.
549  5.48  0.  0.
550  5.49  0.  0.
551  5.50  0.  0.
552  5.51  0.  0.
553  5.52  0.  0.
554  5.53  0.  0.
555  5.54  0.  0.
556  5.55  0.  0.
557  5.56  0.  0.
558  5.57  0.  0.
559  5.58  0.  0.
560  5.59  0.  0.
561  5.60  0.  0.
562  5.61  0.  0.
563  5.62  0.  0.
564  5.63  0.  0.
565  5.64  0.  0.
566  5.65  0.  0.
567  5.66  0.  0.
568  5.67  0.  0.
569  5.68  0.  0.
570  5.69  0.  0.
571  5.70  0.  0.
572  5.71  0.  0.
573  5.72  0.  0.
574  5.73  0.  0.
575  5.74  0.  0.
576  5.75  0.  0.
577  5.76  0.  0.
578  5.77  0.  0.
579  5.78  0.  0.
580  5.79  0.  0.
581  5.80  0.  0.
582  5.81  0.  0.
583  5.82  0.  0.
584  5.83  0.  0.
585  5.84  0.  0.
586  5.85  0.  0.
587  5.86  0.  0.
588  5.87  0.  0.
589  5.88  0.  0.
590  5.89  0.  0.
591  5.90  0.  0.
592  5.91  0.  0.
593  5.92  0.  0.
594  5.93  0.  0.
595  5.94  0.  0.
596  5.95  0.  0.
597  5.96  0.  0.
598  5.97  0.  0.
599  5.98  0.  0.
600  5.99  0.  0.
1                         4.8144285482502E+00 -2.2548447792691E-01
1  0.0000000000000E+00 -2.1708934649922E-09 -1.3734169605414E-08
2  1.0000000000000E-02  2.1222470645379E-03  1.8981087271818E-04
3  2.0000000000000E-02  8.4800581349988E-03  7.6846623028178E-04
4  3.0000000000000E-02  1.9046634041962E-02  1.7633162932060E-03
5  4.0000000000000E-02  3.3777281563351E-02  3.2188932673879E-03
6  5.0000000000000E-02  5.2609376352400E-02  5.1953636319286E-03
7  6.0000000000000E-02  7.5462320569882E-02  7.7664196519757E-03
8  7.0000000000000E-02  1.0223750442603E-01  1.1016666691997E-02
9  8.0000000000000E-02  1.3281828300848E-01  1.5038576639072E-02
10  9.0000000000000E-02  1.6706998161492E-01  1.9929089735981E-02
11  1.0000000000000E-01  2.0483994426581E-01  2.5785957070288E-02
12  1.1000000000000E-01  2.4595764109793E-01  3.2703923616290E-02
13  1.2000000000000E-01  2.9023485089621E-01  4.0770856883450E-02
14  1.3000000000000E-01  3.3746593508538E-01  5.0063928751664E-02
15  1.4000000000000E-01  3.8742821906175E-01  6.0645957894281E-02
16  1.5000000000000E-01  4.3988249579937E-01  7.2562017297356E-02
17  1.6000000000000E-01  4.9457366522624E-01  8.5836405830741E-02
18  1.7000000000000E-01  5.5123152096091E-01  1.0047007473896E-01
19  1.8000000000000E-01  6.0957169366506E-01  1.1643858947389E-01
20  1.9000000000000E-01  6.6929675755098E-01  1.3369069473352E-01
21  2.0000000000000E-01  7.3009750354427E-01  1.5214753618849E-01
22  2.1000000000000E-01  7.9165437930684E-01  1.7170257651321E-01
23  2.2000000000000E-01  8.5363909284951E-01  1.9222222636421E-01
24  2.3000000000000E-01  9.1571637288608E-01  2.1354719327192E-01
25  2.4000000000000E-01  9.7754587548556E-01  2.3549453345695E-01
26  2.5000000000000E-01  1.0387842230517E+00  2.5786037378354E-01
27  2.6000000000000E-01  1.0990871582843E+00  2.8042325385409E-01
28  2.7000000000000E-01  1.1581117926357E+00  3.0294802205367E-01
29  2.8000000000000E-01  1.2155189259531E+00  3.2519020457337E-01
30  2.9000000000000E-01  1.2709754115539E+00  3.4690075344823E-01
31  3.0000000000000E-01  1.3241565389935E+00  3.6783106877087E-01
32  3.1000000000000E-01  1.3747484053035E+00  3.8773818176986E-01
33  3.2000000000000E-01  1.4224502445390E+00  4.0638997960082E-01
34  3.3000000000000E-01  1.4669766851243E+00  4.2357034965758E-01
35  3.4000000000000E-01  1.5080599047322E+00  4.3908412107125E-01
36  3.5000000000000E-01  1.5454516532857E+00  4.5276168386391E-01
37  3.6000000000000E-01  1.5789251161208E+00  4.6446317192330E-01
38  3.7000000000000E-01  1.6082765913775E+00  4.7408210446230E-01
39  3.8000000000000E-01  1.6333269582536E+00  4.8154839174968E-01
40  3.9000000000000E-01  1.6539229158153E+00  4.8683062440879E-01
41  4.0000000000000E-01  1.6699379755537E+00  4.8993758118596E-01
42  4.1000000000000E-01  1.6812731947345E+00  4.9091890743742E-01
43  4.2000000000000E-01  1.6878576417270E+00  4.8986493528456E-01
44  4.3000000000000E-01  1.6896485888426E+00  4.8690563600732E-01
45  4.4000000000000E-01  1.6866314326579E+00  4.8220871533230E-01
46  4.5000000000000E-01  1.6788193462611E+00  4.7597688235203E-01
47  4.6000000000000E-01  1.6662526722331E+00  4.6844434240734E-01
48  4.7000000000000E-01  1.6489980693828E+00  4.5987258290755E-01
49  4.8000000000000E-01  1.6271474301809E+00  4.5054553829642E-01
50  4.9000000000000E-01  1.6008165894222E+00  4.4076423577498E-01
51  5.0000000000000E-01  1.5701438477892E+00  4.3084103657483E-01
52  5.1000000000000E-01  1.5352883366392E+00  4.2109359820355E-01
53  5.2000000000000E-01  1.4964282524243E+00  4.1183869087201E-01
54  5.3000000000000E-01  1.4537589906402E+00  4.0338600604845E-01
55  5.4000000000000E-01  1.4074912100490E+00  3.9603209661565E-01
56  5.5000000000000E-01  1.3578488581192E+00  3.9005458636392E-01
57  5.6000000000000E-01  1.3050671881696E+00  3.8570678153576E-01
58  5.7000000000000E-01  1.2493907976048E+00  3.8321280893141E-01
59  5.8000000000000E-01  1.1910717149180E+00  3.8276339384249E-01
60  5.9000000000000E-01  1.1303675608503E+00  3.8451237703712E-01
61  6.0000000000000E-01  1.0675398062970E+00  3.8857405347274E-01
62  6.1000000000000E-01  1.0028521462994E+00  3.9502139672741E-01
63  6.2000000000000E-01  9.3656900584333E-01  4.0388521273298E-01
64  6.3000000000000E-01  8.6895418928249E-01  4.1515424472987E-01
65  6.4000000000000E-01  8.0026968111681E-01  4.2877622894089E-01
66  6.5000000000000E-01  7.3077460167943E-01  4.4465987780782E-01
67  6.6000000000000E-01  6.6072431712334E-01  4.6267774527993E-01
68  6.7000000000000E-01  5.9036969905264E-01  4.8266990712992E-01
69  6.8000000000000E-01  5.1995652531352E-01  5.0444836911631E-01
70  6.9000000000000E-01  4.4972500994115E-01  5.2780209751380E-01
71  7.0000000000000E-01  3.7990944713817E-01  5.5250255055071E-01
72  7.1000000000000E-01  3.1073795151838E-01  5.7830957603771E-01
73  7.2000000000000E-01  2.4243227475088E-01  6.0497753029489E-01
74  7.3000000000000E-01  1.7520767724190E-01  6.3226146666853E-01
75  7.4000000000000E-01  1.0927283263166E-01  6.5992323868122E-01
76  7.5000000000000E-01  4.4829742688296E-02  6.8773736330645E-01
77  7.6000000000000E-01 -1.7926359343517E-02  7.1549649403895E-01
78  7.7000000000000E-01 -7.8807137742199E-02  7.4301636129961E-01
79  7.8000000000000E-01 -1.3763133468331E-01  7.7014004913092E-01
80  7.9000000000000E-01 -1.9422501864031E-01  7.9674149188554E-01
81  8.0000000000000E-01 -2.4842191455156E-01  8.2272809238249E-01
82  8.1000000000000E-01 -3.0006382611117E-01  8.4804238342369E-01
83  8.2000000000000E-01 -3.4900115677550E-01  8.7266267718240E-01
84  8.3000000000000E-01 -3.9509353202120E-01  8.9660267128657E-01
85  8.4000000000000E-01 -4.3821052114802E-01  9.1991000587597E-01
86  8.5000000000000E-01 -4.7823245260072E-01  9.4266379191993E-01
87  8.6000000000000E-01 -5.1505131250194E-01  9.6497115703820E-01
88  8.7000000000000E-01 -5.4857171195625E-01  9.8696288035175E-01
89  8.8000000000000E-01 -5.7871190481807E-01  1.0087882118928E+00
90  8.9000000000000E-01 -6.0540483412033E-01  1.0306089942391E+00
91  9.0000000000000E-01 -6.2859918233811E-01  1.0525932237473E+00
92  9.1000000000000E-01 -6.4826039820251E-01  1.0749082055446E+00
93  9.2000000000000E-01 -6.6437167096508E-01  1.0977134698485E+00
94  9.3000000000000E-01 -6.7693482190567E-01  1.1211536268538E+00
95  9.4000000000000E-01 -6.8597108252673E-01  1.1453513430594E+00
96  9.5000000000000E-01 -6.9152172931512E-01  1.1704006233086E+00
97  9.6000000000000E-01 -6.9364854619243E-01  1.1963605798833E+00
98  9.7000000000000E-01 -6.9243408780858E-01  1.2232498627111E+00
99  9.8000000000000E-01 -6.8798171963766E-01  1.2510419132227E+00
100  9.9000000000000E-01 -6.8041541436239E-01  1.2796611888203E+00
101  1.0000000000000E+00 -6.6987928822258E-01  1.3089804855859E+00
102  1.0100000000000E+00 -6.5653686577130E-01  1.3388194641612E+00
103  1.0200000000000E+00 -6.4057006673769E-01  1.3689444581102E+00
104  1.0300000000000E+00 -6.2217791432336E-01  1.3990696161084E+00
105  1.0400000000000E+00 -6.0157497013790E-01  1.4288593995852E+00
106  1.0500000000000E+00 -5.7898950699003E-01  1.4579324265857E+00
107  1.0600000000000E+00 -5.5466143673881E-01  1.4858666213896E+00
108  1.0700000000000E+00 -5.2884001625313E-01  1.5122055984649E+00
109  1.0800000000000E+00 -5.0178136008558E-01  1.5364661793535E+00
110  1.0900000000000E+00 -4.7374579358870E-01  1.5581469128852E+00
111  1.1000000000000E+00 -4.4499508479182E-01  1.5767374431746E+00
112  1.1100000000000E+00 -4.1578959725739E-01  1.5917285470321E+00
113  1.1200000000000E+00 -3.8638540927946E-01  1.6026226430587E+00
114  1.1300000000000E+00 -3.5703144705392E-01  1.6089445594595E+00
115  1.1400000000000E+00 -3.2796668078858E-01  1.6102523367945E+00
116  1.1500000000000E+00 -2.9941743306555E-01  1.6061478358696E+00
117  1.1600000000000E+00 -2.7159484809287E-01  1.5962869199258E+00
118  1.1700000000000E+00 -2.4469256877896E-01  1.5803889843129E+00
119  1.1800000000000E+00 -2.1888466583195E-01  1.5582456159688E+00
120  1.1900000000000E+00 -1.9432385939453E-01  1.5297281790078E+00
121  1.2000000000000E+00 -1.7114006907183E-01  1.4947941415555E+00
122  1.2100000000000E+00 -1.4943932276463E-01  1.4534919819309E+00
123  1.2200000000000E+00 -1.2930304847135E-01  1.4059645393866E+00
124  1.2300000000000E+00 -1.1078776639083E-01  1.3524507048864E+00
125  1.2400000000000E+00 -9.3925191316798E-02  1.2932853804605E+00
126  1.2500000000000E+00 -7.8722747596487E-02  1.2288976709122E+00
127  1.2600000000000E+00 -6.5164491068495E-02  1.1598073079242E+00
128  1.2700000000000E+00 -5.3212424448114E-02  1.0866193436704E+00
129  1.2800000000000E+00 -4.2808184833975E-02  1.0100171877243E+00
130  1.2900000000000E+00 -3.3875074533780E-02  9.3075409655752E-01
131  1.3000000000000E+00 -2.6320399338042E-02  8.4964325878945E-01
132  1.3100000000000E+00 -2.0038071939773E-02  7.6754665046814E-01
133  1.3200000000000E+00 -1.4911432513105E-02  6.8536286248131E-01
134  1.3300000000000E+00 -1.0816233637139E-02  6.0401412615666E-01
135  1.3400000000000E+00 -7.6237329104111E-03  5.2443278257507E-01
136  1.3500000000000E+00 -5.2038338411722E-03  4.4754745560570E-01
137  1.3600000000000E+00 -3.4282063224472E-03  3.7426922113184E-01
138  1.3700000000000E+00 -2.1733910965918E-03  3.0547784683065E-01
139  1.3800000000000E+00 -1.3235498020531E-03  2.4200922302808E-01
140  1.3900000000000E+00 -7.8203831576047E-04  1.8461587836847E-01
141  1.4000000000000E+00 -4.7072208785011E-04  1.3396206756174E-01
142  1.4100000000000E+00 -2.9967927582572E-04  9.0715960919673E-02
143  1.4200000000000E+00 -1.9975234538552E-04  5.5446620398488E-02
144  1.4300000000000E+00 -1.2609900804488E-04  2.8600148256139E-02
145  1.4400000000000E+00 -5.9736795447098E-05  1.0453496444293E-02
146  1.4500000000000E+00 -1.0562782329374E-05  1.3913862044287E-03
147  1.4600000000000E+00  1.3253079076239E-06 -1.4955905516160E-04
148  1.4700000000000E+00 -3.1320694938914E-07  3.9200412403611E-05
149  1.48  0. -0.
150  1.49 -0.  0.
151  1.50  0.  0.
152  1.51  0.  0.
153  1.52  0.  0.
154  1.53  0.  0.
155  1.54  0.  0.
156  1.55  0.  0.
157  1.56  0.  0.
158  1.57  0.  0.
159  1.58  0.  0.
160  1.59  0.  0.
161  1.60  0.  0.
162  1.61  0.  0.
163  1.62  0.  0.
164  1.63  0.  0.
165  1.64  0.  0.
166  1.65  0.  0.
167  1.66  0.  0.
168  1.67  0.  0.
169  1.68  0.  0.
170  1.69  0.  0.
171  1.70  0.  0.
172  1.71  0.  0.
173  1.72  0.  0.
174  1.73  0.  0.
175  1.74  0.  0.
176  1.75  0.  0.
177  1.76  0.  0.
178  1.77  0.  0.
179  1.78  0.  0.
180  1.79  0.  0.
181  1.80  0.  0.
182  1.81  0.  0.
183  1.82  0.  0.
184  1.83  0.  0.
185  1.84  0.  0.
186  1.85  0.  0.
187  1.86  0.  0.
188  1.87  0.  0.
189  1.88  0.  0.
190  1.89  0.  0.
191  1.90  0.  0.
192  1.91  0.  0.
193  1.92  0.  0.
194  1.93  0.  0.
195  1.94  0.  0.
196  1.95  0.  0.
197  1.96  0.  0.
198  1.97  0.  0.
199  1.98  0.  0.
200  1.99  0.  0.
201  2.00  0.  0.
202  2.01  0.  0.
203  2.02  0.  0.
204  2.03  0.  0.
205  2.04  0.  0.
206  2.05  0.  0.
207  2.06  0.  0.
208  2.07  0.  0.
209  2.08  0.  0.
210  2.09  0.  0.
211  2.10  0.  0.
212  2.11  0.  0.
213  2.12  0.  0.
214  2.13  0.  0.
215  2.14  0.  0.
216  2.15  0.  0.
217  2.16  0.  0.
218  2.17  0.  0.
219  2.18  0.  0.
220  2.19  0.  0.
221  2.20  0.  0.
222  2.21  0.  0.
223  2.22  0.  0.
224  2.23  0.  0.
225  2.24  0.  0.
226  2.25  0.  0.
227  2.26  0.  0.
228  2.27  0.  0.
229  2.28  0.  0.
230  2.29  0.  0.
231  2.30  0.  0.
232  2.31  0.  0.
233  2.32  0.  0.
234  2.33  0.  0.
235  2.34  0.  0.
236  2.35  0.  0.
237  2.36  0.  0.
238  2.37  0.  0.
239  2.38  0.  0.
240  2.39  0.  0.
241  2.40  0.  0.
242  2.41  0.  0.
243  2.42  0.  0.
244  2.43  0.  0.
245  2.44  0.  0.
246  2.45  0.  0.
247  2.46  0.  0.
248  2.47  0.  0.
249  2.48  0.  0.
250  2.49  0.  0.
251  2.50  0.  0.
252  2.51  0.  0.
253  2.52  0.  0.
254  2.53  0.  0.
255  2.54  0.  0.
256  2.55  0.  0.
257  2.56  0.  0.
258  2.57  0.  0.
259  2.58  0.  0.
260  2.59  0.  0.
261  2.60  0.  0.