Es    ONCVPSP-4.0.1  r_core=   1.15603   1.15603   1.33451   1.35057
     99.0000     39.0000      230825    zatom,zion,pspd
     8      11   3     4   600     0    pspcod,pspxc,lmax,lloc,mmax,r2well
  5.99000000  5.00000000  0.00000000    rchrg fchrg qchrg
     3     3     3     2    nproj
     3     1           extension_switch
     4     3     4    nprojso
   0                         2.4185585120471E+01  2.8022875332734E+00 -1.5436795213387E+00
     1  0.0000000000000E+00 -7.4891929102705E-08  2.5639926481968E-07 -7.7805878961890E-09
     2  1.0000000000000E-02  1.6170618547653E-01 -7.0665184710475E-02  3.4500977057503E-02
     3  2.0000000000000E-02  3.2212606167506E-01 -1.3934667972928E-01  6.8855906481410E-02
     4  3.0000000000000E-02  4.7999352384406E-01 -2.0411696271042E-01  1.0292084509642E-01
     5  4.0000000000000E-02  6.3408230016965E-01 -2.6315892575307E-01  1.3655600463169E-01
     6  5.0000000000000E-02  7.8322444857582E-01 -3.1481635256444E-01  1.6962769632532E-01
     7  6.0000000000000E-02  9.2632720688137E-01 -3.5763891446491E-01  2.0201012212496E-01
     8  7.0000000000000E-02  1.0623877400646E+00 -3.9042017521515E-01  2.3358697108434E-01
     9  8.0000000000000E-02  1.1905054032788E+00 -4.1222735104407E-01  2.6425278733611E-01
    10  9.0000000000000E-02  1.3098912274461E+00 -4.2242187425956E-01  2.9391408507232E-01
    11  1.0000000000000E-01  1.4198744324119E+00 -4.2067014512943E-01  3.2249019587938E-01
    12  1.1000000000000E-01  1.5199058770942E+00 -4.0694421474848E-01  3.4991384410951E-01
    13  1.2000000000000E-01  1.6095584628643E+00 -3.8151250796944E-01  3.7613145625843E-01
    14  1.3000000000000E-01  1.6885246115749E+00 -3.4492105648209E-01  4.0110322009751E-01
    15  1.4000000000000E-01  1.7566110392382E+00 -2.9796605428998E-01  4.2480291813122E-01
    16  1.5000000000000E-01  1.8137311366569E+00 -2.4165885839907E-01  4.4721756741912E-01
    17  1.6000000000000E-01  1.8598953459458E+00 -1.7718482492524E-01  4.6834690357096E-01
    18  1.7000000000000E-01  1.8951999839869E+00 -1.0585758511894E-01  4.8820275052865E-01
    19  1.8000000000000E-01  1.9198150081505E+00 -2.9070519063608E-02  5.0680831941135E-01
    20  1.9000000000000E-01  1.9339712444971E+00  5.1752728590332E-02  5.2419747913750E-01
    21  2.0000000000000E-01  1.9379476032971E+00  1.3520682964739E-01  5.4041403877125E-01
    22  2.1000000000000E-01  1.9320587909829E+00  2.1995064232321E-01  5.5551107669321E-01
    23  2.2000000000000E-01  1.9166439922950E+00  3.0474868375169E-01  5.6955034498580E-01
    24  2.3000000000000E-01  1.8920569428413E+00  3.8850670340791E-01  5.8260176916350E-01
    25  2.4000000000000E-01  1.8586577427186E+00  4.7030009672536E-01  5.9474305395312E-01
    26  2.5000000000000E-01  1.8168066790007E+00  5.4939418602134E-01  6.0605939568861E-01
    27  2.6000000000000E-01  1.7668602320647E+00  6.2525571957509E-01  6.1664329151655E-01
    28  2.7000000000000E-01  1.7091693415501E+00  6.9755528694931E-01  6.2659442552604E-01
    29  2.8000000000000E-01  1.6440799061335E+00  7.6616070617218E-01  6.3601960262649E-01
    30  2.9000000000000E-01  1.5719353912448E+00  8.3112179254906E-01  6.4503269298764E-01
    31  3.0000000000000E-01  1.4930813242809E+00  8.9264725617499E-01  6.5375454356396E-01
    32  3.1000000000000E-01  1.4078713715135E+00  9.5107478281407E-01  6.6231280902631E-01
    33  3.2000000000000E-01  1.3166746181100E+00  1.0068356190076E+00  6.7084165260382E-01
    34  3.3000000000000E-01  1.2198836153624E+00  1.0604151969330E+00  6.7948126808804E-01
    35  3.4000000000000E-01  1.1179227196521E+00  1.1123114895180E+00  6.8837717765064E-01
    36  3.5000000000000E-01  1.0112562274518E+00  1.1629928757350E+00  6.9767926613645E-01
    37  3.6000000000000E-01  9.0039581064942E-01  1.2128573164810E+00  7.0754052096454E-01
    38  3.7000000000000E-01  7.8590677673896E-01  1.2621945922383E+00  7.1811545743290E-01
    39  3.8000000000000E-01  6.6841271824624E-01  1.3111532367175E+00  7.2955822170488E-01
    40  3.9000000000000E-01  5.4859817368422E-01  1.3597136203807E+00  7.4202037759605E-01
    41  4.0000000000000E-01  4.2720899617964E-01  1.4076684010327E+00  7.5564839793763E-01
    42  4.1000000000000E-01  3.0505021289693E-01  1.4546112745682E+00  7.7058089617850E-01
    43  4.2000000000000E-01  1.8298125520167E-01  1.4999346383172E+00  7.8694564837927E-01
    44  4.3000000000000E-01  6.1908542462806E-02  1.5428364344318E+00  8.0485646922317E-01
    45  4.4000000000000E-01 -5.7224492439047E-02  1.5823360845372E+00  8.2441001751672E-01
    46  4.5000000000000E-01 -1.7344974447801E-01  1.6172990729473E+00  8.4568261632114E-01
    47  4.6000000000000E-01 -2.8578885573385E-01  1.6464693975553E+00  8.6872717985775E-01
    48  4.7000000000000E-01 -3.9326933549305E-01  1.6685087978384E+00  8.9357034327739E-01
    49  4.8000000000000E-01 -4.9494192904385E-01  1.6820413999830E+00  9.2020989199414E-01
    50  4.9000000000000E-01 -5.8989872370801E-01  1.6857022000558E+00  9.4861258440444E-01
    51  5.0000000000000E-01 -6.7729143948023E-01  1.6781876456663E+00  9.7871245542518E-01
    52  5.1000000000000E-01 -7.5634933021785E-01  1.6583064806253E+00  1.0104096785085E+00
    53  5.2000000000000E-01 -8.2639612051059E-01  1.6250289892321E+00  1.0435700508828E+00
    54  5.3000000000000E-01 -8.8686542325660E-01  1.5775328179475E+00  1.0780251511170E+00
    55  5.4000000000000E-01 -9.3731412288504E-01  1.5152436606329E+00  1.1135732002035E+00
    56  5.5000000000000E-01 -9.7743326766427E-01  1.4378692650685E+00  1.1499806378150E+00
    57  5.6000000000000E-01 -1.0070560894818E+00  1.3454254465208E+00  1.1869844048721E+00
    58  5.7000000000000E-01 -1.0261628581426E+00  1.2382530700556E+00  1.2242949028011E+00
    59  5.8000000000000E-01 -1.0348823763657E+00  1.1170252766974E+00  1.2615995795960E+00
    60  5.9000000000000E-01 -1.0334900276535E+00  9.8274456765026E-01  1.2985670737780E+00
    61  6.0000000000000E-01 -1.0224023982183E+00  8.3672971302757E-01  1.3348518302530E+00
    62  6.1000000000000E-01 -1.0021686022471E+00  6.8059280385991E-01  1.3700990875532E+00
    63  6.2000000000000E-01 -9.7345854311086E-01  5.1620710567357E-01  1.4039501245381E+00
    64  6.3000000000000E-01 -9.3704843801684E-01  3.4566668635629E-01  1.4360476467624E+00
    65  6.4000000000000E-01 -8.9380401677799E-01  1.7123906912707E-01  1.4660411886821E+00
    66  6.5000000000000E-01 -8.4466187399124E-01 -4.6876065548267E-03  1.4935924078106E+00
    67  6.6000000000000E-01 -7.9060950573116E-01 -1.7966125527555E-01  1.5183801508635E+00
    68  6.7000000000000E-01 -7.3266459526993E-01 -3.5122456805396E-01  1.5401051796722E+00
    69  6.8000000000000E-01 -6.7185412643586E-01 -5.1697395279863E-01  1.5584944559115E+00
    70  6.9000000000000E-01 -6.0919389784306E-01 -6.7461686827101E-01  1.5733048980378E+00
    71  7.0000000000000E-01 -5.4566898691964E-01 -8.2202579954579E-01  1.5843265407080E+00
    72  7.1000000000000E-01 -4.8221567066035E-01 -9.5728725500067E-01  1.5913850457106E+00
    73  7.2000000000000E-01 -4.1970525219699E-01 -1.0787443506419E+00  1.5943435333577E+00
    74  7.3000000000000E-01 -3.5893017101589E-01 -1.1850317794664E+00  1.5931037236165E+00
    75  7.4000000000000E-01 -3.0059269278990E-01 -1.2751022324407E+00  1.5876063962342E+00
    76  7.5000000000000E-01 -2.4529638549618E-01 -1.3482436332098E+00  1.5778311979845E+00
    77  7.6000000000000E-01 -1.9354049509178E-01 -1.4040868598214E+00  1.5637958422752E+00
    78  7.7000000000000E-01 -1.4571723991643E-01 -1.4426039422277E+00  1.5455547610755E+00
    79  7.8000000000000E-01 -1.0211195150290E-01 -1.4640970329070E+00  1.5231972809865E+00
    80  7.9000000000000E-01 -6.2905903707521E-02 -1.4691787390266E+00  1.4968454039000E+00
    81  8.0000000000000E-01 -2.8181594821406E-02 -1.4587446684833E+00  1.4666512778673E+00
    82  8.1000000000000E-01  2.0698190376531E-03 -1.4339392705221E+00  1.4327944454499E+00
    83  8.2000000000000E-01  2.7939294531840E-02 -1.3961162376378E+00  1.3954789550357E+00
    84  8.3000000000000E-01  4.9589270447410E-02 -1.3467948740410E+00  1.3549304156135E+00
    85  8.4000000000000E-01  6.7242055085392E-02 -1.2876139239479E+00  1.3113930676672E+00
    86  8.5000000000000E-01  8.1167660494087E-02 -1.2202843890284E+00  1.2651269326766E+00
    87  8.6000000000000E-01  9.1671507100218E-02 -1.1465428491199E+00  1.2164050917800E+00
    88  8.7000000000000E-01  9.9082403197119E-02 -1.0681067360741E+00  1.1655111311153E+00
    89  8.8000000000000E-01  1.0374117209203E-01 -9.8663290117955E-01  1.1127367779318E+00
    90  8.9000000000000E-01  1.0599025715960E-01 -9.0368066711685E-01  1.0583797384318E+00
    91  9.0000000000000E-01  1.0616458350450E-01 -8.2068037188391E-01  1.0027417361795E+00
    92  9.1000000000000E-01  1.0458389646391E-01 -7.3890820128186E-01  9.4612673940334E-01
    93  9.2000000000000E-01  1.0154673387781E-01 -6.5946787530584E-01  8.8883935718624E-01
    94  9.3000000000000E-01  9.7326122937133E-02 -5.8327950896060E-01  8.3118337880325E-01
    95  9.4000000000000E-01  9.2167025351273E-02 -5.1107571608633E-01  7.7346042763832E-01
    96  9.5000000000000E-01  8.6285488090245E-02 -4.4340477122591E-01  7.1596870133546E-01
    97  9.6000000000000E-01  7.9869392314586E-02 -3.8064039415108E-01  6.5900177310571E-01
    98  9.7000000000000E-01  7.3080631072488E-02 -3.2299747758894E-01  6.0284743523881E-01
    99  9.8000000000000E-01  6.6058487270263E-02 -2.7055284291172E-01  5.4778657451436E-01
   100  9.9000000000000E-01  5.8923927165424E-02 -2.2326988147203E-01  4.9409207986262E-01
   101  1.0000000000000E+00  5.1784470515807E-02 -1.8102571955082E-01  4.4202779465051E-01
   102  1.0100000000000E+00  4.4739245460848E-02 -1.4363932995799E-01  3.9184753857251E-01
   103  1.0200000000000E+00  3.7883782651438E-02 -1.1089879899155E-01  3.4379423642475E-01
   104  1.0300000000000E+00  3.1314047081034E-02 -8.2585738036457E-02  2.9809920207875E-01
   105  1.0400000000000E+00  2.5129145252040E-02 -5.8494598097822E-02  2.5498163470375E-01
   106  1.0500000000000E+00  1.9432077269119E-02 -3.8444395710351E-02  2.1464838967522E-01
   107  1.0600000000000E+00  1.4327825289158E-02 -2.2280081114335E-02  1.7729408760518E-01
   108  1.0700000000000E+00  9.9179788078887E-03 -9.8604662699984E-03  1.4310162048745E-01
   109  1.0800000000000E+00  6.2910117554802E-03 -1.0293342570320E-03  1.1224312225608E-01
   110  1.0900000000000E+00  3.5070121033852E-03  4.4346309215013E-03  8.4881284476221E-02
   111  1.1000000000000E+00  1.5729810013128E-03  6.9011629716074E-03  6.1168503050458E-02
   112  1.1100000000000E+00  3.5554866911187E-04  7.1624992549893E-03  4.1192441591032E-02
   113  1.1200000000000E+00 -2.6659741399046E-04  5.9582008432608E-03  2.5089857687715E-02
   114  1.1300000000000E+00 -4.1672849286334E-04  3.9405722564934E-03  1.2970286007621E-02
   115  1.1400000000000E+00 -2.7215272314011E-04  1.8127319579358E-03  4.8557136684310E-03
   116  1.1500000000000E+00 -5.6725000531967E-05  3.0654802726028E-04  6.8648045926246E-04
   117  1.1600000000000E+00  3.8043343619648E-06 -1.8507583491026E-05 -3.6718329808672E-05
   118  1.1700000000000E+00  5.7722134288703E-09 -3.1640215758396E-08 -7.1650944700570E-08
   119  1.18  0.  0.  0.
   120  1.19  0.  0.  0.
   121  1.20  0.  0.  0.
   122  1.21  0.  0.  0.
   123  1.22  0.  0.  0.
   124  1.23  0.  0.  0.
   125  1.24  0.  0.  0.
   126  1.25  0.  0.  0.
   127  1.26  0.  0.  0.
   128  1.27  0.  0.  0.
   129  1.28  0.  0.  0.
   130  1.29  0.  0.  0.
   131  1.30  0.  0.  0.
   132  1.31  0.  0.  0.
   133  1.32  0.  0.  0.
   134  1.33  0.  0.  0.
   135  1.34  0.  0.  0.
   136  1.35  0.  0.  0.
   137  1.36  0.  0.  0.
   138  1.37  0.  0.  0.
   139  1.38  0.  0.  0.
   140  1.39  0.  0.  0.
   141  1.40  0.  0.  0.
   142  1.41  0.  0.  0.
   143  1.42  0.  0.  0.
   144  1.43  0.  0.  0.
   145  1.44  0.  0.  0.
   146  1.45  0.  0.  0.
   147  1.46  0.  0.  0.
   148  1.47  0.  0.  0.
   149  1.48  0.  0.  0.
   150  1.49  0.  0.  0.
   151  1.50  0.  0.  0.
   152  1.51  0.  0.  0.
   153  1.52  0.  0.  0.
   154  1.53  0.  0.  0.
   155  1.54  0.  0.  0.
   156  1.55  0.  0.  0.
   157  1.56  0.  0.  0.
   158  1.57  0.  0.  0.
   159  1.58  0.  0.  0.
   160  1.59  0.  0.  0.
   161  1.60  0.  0.  0.
   162  1.61  0.  0.  0.
   163  1.62  0.  0.  0.
   164  1.63  0.  0.  0.
   165  1.64  0.  0.  0.
   166  1.65  0.  0.  0.
   167  1.66  0.  0.  0.
   168  1.67  0.  0.  0.
   169  1.68  0.  0.  0.
   170  1.69  0.  0.  0.
   171  1.70  0.  0.  0.
   172  1.71  0.  0.  0.
   173  1.72  0.  0.  0.
   174  1.73  0.  0.  0.
   175  1.74  0.  0.  0.
   176  1.75  0.  0.  0.
   177  1.76  0.  0.  0.
   178  1.77  0.  0.  0.
   179  1.78  0.  0.  0.
   180  1.79  0.  0.  0.
   181  1.80  0.  0.  0.
   182  1.81  0.  0.  0.
   183  1.82  0.  0.  0.
   184  1.83  0.  0.  0.
   185  1.84  0.  0.  0.
   186  1.85  0.  0.  0.
   187  1.86  0.  0.  0.
   188  1.87  0.  0.  0.
   189  1.88  0.  0.  0.
   190  1.89  0.  0.  0.
   191  1.90  0.  0.  0.
   192  1.91  0.  0.  0.
   193  1.92  0.  0.  0.
   194  1.93  0.  0.  0.
   195  1.94  0.  0.  0.
   196  1.95  0.  0.  0.
   197  1.96  0.  0.  0.
   198  1.97  0.  0.  0.
   199  1.98  0.  0.  0.
   200  1.99  0.  0.  0.
   201  2.00  0.  0.  0.
   202  2.01  0.  0.  0.
   203  2.02  0.  0.  0.
   204  2.03  0.  0.  0.
   205  2.04  0.  0.  0.
   206  2.05  0.  0.  0.
   207  2.06  0.  0.  0.
   208  2.07  0.  0.  0.
   209  2.08  0.  0.  0.
   210  2.09  0.  0.  0.
   211  2.10  0.  0.  0.
   212  2.11  0.  0.  0.
   213  2.12  0.  0.  0.
   214  2.13  0.  0.  0.
   215  2.14  0.  0.  0.
   216  2.15  0.  0.  0.
   217  2.16  0.  0.  0.
   218  2.17  0.  0.  0.
   219  2.18  0.  0.  0.
   220  2.19  0.  0.  0.
   221  2.20  0.  0.  0.
   222  2.21  0.  0.  0.
   223  2.22  0.  0.  0.
   224  2.23  0.  0.  0.
   225  2.24  0.  0.  0.
   226  2.25  0.  0.  0.
   227  2.26  0.  0.  0.
   228  2.27  0.  0.  0.
   229  2.28  0.  0.  0.
   230  2.29  0.  0.  0.
   231  2.30  0.  0.  0.
   232  2.31  0.  0.  0.
   233  2.32  0.  0.  0.
   234  2.33  0.  0.  0.
   235  2.34  0.  0.  0.
   236  2.35  0.  0.  0.
   237  2.36  0.  0.  0.
   238  2.37  0.  0.  0.
   239  2.38  0.  0.  0.
   240  2.39  0.  0.  0.
   241  2.40  0.  0.  0.
   242  2.41  0.  0.  0.
   243  2.42  0.  0.  0.
   244  2.43  0.  0.  0.
   245  2.44  0.  0.  0.
   246  2.45  0.  0.  0.
   247  2.46  0.  0.  0.
   248  2.47  0.  0.  0.
   249  2.48  0.  0.  0.
   250  2.49  0.  0.  0.
   251  2.50  0.  0.  0.
   252  2.51  0.  0.  0.
   253  2.52  0.  0.  0.
   254  2.53  0.  0.  0.
   255  2.54  0.  0.  0.
   256  2.55  0.  0.  0.
   257  2.56  0.  0.  0.
   258  2.57  0.  0.  0.
   259  2.58  0.  0.  0.
   260  2.59  0.  0.  0.
   261  2.60  0.  0.  0.
   262  2.61  0.  0.  0.
   263  2.62  0.  0.  0.
   264  2.63  0.  0.  0.
   265  2.64  0.  0.  0.
   266  2.65  0.  0.  0.
   267  2.66  0.  0.  0.
   268  2.67  0.  0.  0.
   269  2.68  0.  0.  0.
   270  2.69  0.  0.  0.
   271  2.70  0.  0.  0.
   272  2.71  0.  0.  0.
   273  2.72  0.  0.  0.
   274  2.73  0.  0.  0.
   275  2.74  0.  0.  0.
   276  2.75  0.  0.  0.
   277  2.76  0.  0.  0.
   278  2.77  0.  0.  0.
   279  2.78  0.  0.  0.
   280  2.79  0.  0.  0.
   281  2.80  0.  0.  0.
   282  2.81  0.  0.  0.
   283  2.82  0.  0.  0.
   284  2.83  0.  0.  0.
   285  2.84  0.  0.  0.
   286  2.85  0.  0.  0.
   287  2.86  0.  0.  0.
   288  2.87  0.  0.  0.
   289  2.88  0.  0.  0.
   290  2.89  0.  0.  0.
   291  2.90  0.  0.  0.
   292  2.91  0.  0.  0.
   293  2.92  0.  0.  0.
   294  2.93  0.  0.  0.
   295  2.94  0.  0.  0.
   296  2.95  0.  0.  0.
   297  2.96  0.  0.  0.
   298  2.97  0.  0.  0.
   299  2.98  0.  0.  0.
   300  2.99  0.  0.  0.
   301  3.00  0.  0.  0.
   302  3.01  0.  0.  0.
   303  3.02  0.  0.  0.
   304  3.03  0.  0.  0.
   305  3.04  0.  0.  0.
   306  3.05  0.  0.  0.
   307  3.06  0.  0.  0.
   308  3.07  0.  0.  0.
   309  3.08  0.  0.  0.
   310  3.09  0.  0.  0.
   311  3.10  0.  0.  0.
   312  3.11  0.  0.  0.
   313  3.12  0.  0.  0.
   314  3.13  0.  0.  0.
   315  3.14  0.  0.  0.
   316  3.15  0.  0.  0.
   317  3.16  0.  0.  0.
   318  3.17  0.  0.  0.
   319  3.18  0.  0.  0.
   320  3.19  0.  0.  0.
   321  3.20  0.  0.  0.
   322  3.21  0.  0.  0.
   323  3.22  0.  0.  0.
   324  3.23  0.  0.  0.
   325  3.24  0.  0.  0.
   326  3.25  0.  0.  0.
   327  3.26  0.  0.  0.
   328  3.27  0.  0.  0.
   329  3.28  0.  0.  0.
   330  3.29  0.  0.  0.
   331  3.30  0.  0.  0.
   332  3.31  0.  0.  0.
   333  3.32  0.  0.  0.
   334  3.33  0.  0.  0.
   335  3.34  0.  0.  0.
   336  3.35  0.  0.  0.
   337  3.36  0.  0.  0.
   338  3.37  0.  0.  0.
   339  3.38  0.  0.  0.
   340  3.39  0.  0.  0.
   341  3.40  0.  0.  0.
   342  3.41  0.  0.  0.
   343  3.42  0.  0.  0.
   344  3.43  0.  0.  0.
   345  3.44  0.  0.  0.
   346  3.45  0.  0.  0.
   347  3.46  0.  0.  0.
   348  3.47  0.  0.  0.
   349  3.48  0.  0.  0.
   350  3.49  0.  0.  0.
   351  3.50  0.  0.  0.
   352  3.51  0.  0.  0.
   353  3.52  0.  0.  0.
   354  3.53  0.  0.  0.
   355  3.54  0.  0.  0.
   356  3.55  0.  0.  0.
   357  3.56  0.  0.  0.
   358  3.57  0.  0.  0.
   359  3.58  0.  0.  0.
   360  3.59  0.  0.  0.
   361  3.60  0.  0.  0.
   362  3.61  0.  0.  0.
   363  3.62  0.  0.  0.
   364  3.63  0.  0.  0.
   365  3.64  0.  0.  0.
   366  3.65  0.  0.  0.
   367  3.66  0.  0.  0.
   368  3.67  0.  0.  0.
   369  3.68  0.  0.  0.
   370  3.69  0.  0.  0.
   371  3.70  0.  0.  0.
   372  3.71  0.  0.  0.
   373  3.72  0.  0.  0.
   374  3.73  0.  0.  0.
   375  3.74  0.  0.  0.
   376  3.75  0.  0.  0.
   377  3.76  0.  0.  0.
   378  3.77  0.  0.  0.
   379  3.78  0.  0.  0.
   380  3.79  0.  0.  0.
   381  3.80  0.  0.  0.
   382  3.81  0.  0.  0.
   383  3.82  0.  0.  0.
   384  3.83  0.  0.  0.
   385  3.84  0.  0.  0.
   386  3.85  0.  0.  0.
   387  3.86  0.  0.  0.
   388  3.87  0.  0.  0.
   389  3.88  0.  0.  0.
   390  3.89  0.  0.  0.
   391  3.90  0.  0.  0.
   392  3.91  0.  0.  0.
   393  3.92  0.  0.  0.
   394  3.93  0.  0.  0.
   395  3.94  0.  0.  0.
   396  3.95  0.  0.  0.
   397  3.96  0.  0.  0.
   398  3.97  0.  0.  0.
   399  3.98  0.  0.  0.
   400  3.99  0.  0.  0.
   401  4.00  0.  0.  0.
   402  4.01  0.  0.  0.
   403  4.02  0.  0.  0.
   404  4.03  0.  0.  0.
   405  4.04  0.  0.  0.
   406  4.05  0.  0.  0.
   407  4.06  0.  0.  0.
   408  4.07  0.  0.  0.
   409  4.08  0.  0.  0.
   410  4.09  0.  0.  0.
   411  4.10  0.  0.  0.
   412  4.11  0.  0.  0.
   413  4.12  0.  0.  0.
   414  4.13  0.  0.  0.
   415  4.14  0.  0.  0.
   416  4.15  0.  0.  0.
   417  4.16  0.  0.  0.
   418  4.17  0.  0.  0.
   419  4.18  0.  0.  0.
   420  4.19  0.  0.  0.
   421  4.20  0.  0.  0.
   422  4.21  0.  0.  0.
   423  4.22  0.  0.  0.
   424  4.23  0.  0.  0.
   425  4.24  0.  0.  0.
   426  4.25  0.  0.  0.
   427  4.26  0.  0.  0.
   428  4.27  0.  0.  0.
   429  4.28  0.  0.  0.
   430  4.29  0.  0.  0.
   431  4.30  0.  0.  0.
   432  4.31  0.  0.  0.
   433  4.32  0.  0.  0.
   434  4.33  0.  0.  0.
   435  4.34  0.  0.  0.
   436  4.35  0.  0.  0.
   437  4.36  0.  0.  0.
   438  4.37  0.  0.  0.
   439  4.38  0.  0.  0.
   440  4.39  0.  0.  0.
   441  4.40  0.  0.  0.
   442  4.41  0.  0.  0.
   443  4.42  0.  0.  0.
   444  4.43  0.  0.  0.
   445  4.44  0.  0.  0.
   446  4.45  0.  0.  0.
   447  4.46  0.  0.  0.
   448  4.47  0.  0.  0.
   449  4.48  0.  0.  0.
   450  4.49  0.  0.  0.
   451  4.50  0.  0.  0.
   452  4.51  0.  0.  0.
   453  4.52  0.  0.  0.
   454  4.53  0.  0.  0.
   455  4.54  0.  0.  0.
   456  4.55  0.  0.  0.
   457  4.56  0.  0.  0.
   458  4.57  0.  0.  0.
   459  4.58  0.  0.  0.
   460  4.59  0.  0.  0.
   461  4.60  0.  0.  0.
   462  4.61  0.  0.  0.
   463  4.62  0.  0.  0.
   464  4.63  0.  0.  0.
   465  4.64  0.  0.  0.
   466  4.65  0.  0.  0.
   467  4.66  0.  0.  0.
   468  4.67  0.  0.  0.
   469  4.68  0.  0.  0.
   470  4.69  0.  0.  0.
   471  4.70  0.  0.  0.
   472  4.71  0.  0.  0.
   473  4.72  0.  0.  0.
   474  4.73  0.  0.  0.
   475  4.74  0.  0.  0.
   476  4.75  0.  0.  0.
   477  4.76  0.  0.  0.
   478  4.77  0.  0.  0.
   479  4.78  0.  0.  0.
   480  4.79  0.  0.  0.
   481  4.80  0.  0.  0.
   482  4.81  0.  0.  0.
   483  4.82  0.  0.  0.
   484  4.83  0.  0.  0.
   485  4.84  0.  0.  0.
   486  4.85  0.  0.  0.
   487  4.86  0.  0.  0.
   488  4.87  0.  0.  0.
   489  4.88  0.  0.  0.
   490  4.89  0.  0.  0.
   491  4.90  0.  0.  0.
   492  4.91  0.  0.  0.
   493  4.92  0.  0.  0.
   494  4.93  0.  0.  0.
   495  4.94  0.  0.  0.
   496  4.95  0.  0.  0.
   497  4.96  0.  0.  0.
   498  4.97  0.  0.  0.
   499  4.98  0.  0.  0.
   500  4.99  0.  0.  0.
   501  5.00  0.  0.  0.
   502  5.01  0.  0.  0.
   503  5.02  0.  0.  0.
   504  5.03  0.  0.  0.
   505  5.04  0.  0.  0.
   506  5.05  0.  0.  0.
   507  5.06  0.  0.  0.
   508  5.07  0.  0.  0.
   509  5.08  0.  0.  0.
   510  5.09  0.  0.  0.
   511  5.10  0.  0.  0.
   512  5.11  0.  0.  0.
   513  5.12  0.  0.  0.
   514  5.13  0.  0.  0.
   515  5.14  0.  0.  0.
   516  5.15  0.  0.  0.
   517  5.16  0.  0.  0.
   518  5.17  0.  0.  0.
   519  5.18  0.  0.  0.
   520  5.19  0.  0.  0.
   521  5.20  0.  0.  0.
   522  5.21  0.  0.  0.
   523  5.22  0.  0.  0.
   524  5.23  0.  0.  0.
   525  5.24  0.  0.  0.
   526  5.25  0.  0.  0.
   527  5.26  0.  0.  0.
   528  5.27  0.  0.  0.
   529  5.28  0.  0.  0.
   530  5.29  0.  0.  0.
   531  5.30  0.  0.  0.
   532  5.31  0.  0.  0.
   533  5.32  0.  0.  0.
   534  5.33  0.  0.  0.
   535  5.34  0.  0.  0.
   536  5.35  0.  0.  0.
   537  5.36  0.  0.  0.
   538  5.37  0.  0.  0.
   539  5.38  0.  0.  0.
   540  5.39  0.  0.  0.
   541  5.40  0.  0.  0.
   542  5.41  0.  0.  0.
   543  5.42  0.  0.  0.
   544  5.43  0.  0.  0.
   545  5.44  0.  0.  0.
   546  5.45  0.  0.  0.
   547  5.46  0.  0.  0.
   548  5.47  0.  0.  0.
   549  5.48  0.  0.  0.
   550  5.49  0.  0.  0.
   551  5.50  0.  0.  0.
   552  5.51  0.  0.  0.
   553  5.52  0.  0.  0.
   554  5.53  0.  0.  0.
   555  5.54  0.  0.  0.
   556  5.55  0.  0.  0.
   557  5.56  0.  0.  0.
   558  5.57  0.  0.  0.
   559  5.58  0.  0.  0.
   560  5.59  0.  0.  0.
   561  5.60  0.  0.  0.
   562  5.61  0.  0.  0.
   563  5.62  0.  0.  0.
   564  5.63  0.  0.  0.
   565  5.64  0.  0.  0.
   566  5.65  0.  0.  0.
   567  5.66  0.  0.  0.
   568  5.67  0.  0.  0.
   569  5.68  0.  0.  0.
   570  5.69  0.  0.  0.
   571  5.70  0.  0.  0.
   572  5.71  0.  0.  0.
   573  5.72  0.  0.  0.
   574  5.73  0.  0.  0.
   575  5.74  0.  0.  0.
   576  5.75  0.  0.  0.
   577  5.76  0.  0.  0.
   578  5.77  0.  0.  0.
   579  5.78  0.  0.  0.
   580  5.79  0.  0.  0.
   581  5.80  0.  0.  0.
   582  5.81  0.  0.  0.
   583  5.82  0.  0.  0.
   584  5.83  0.  0.  0.
   585  5.84  0.  0.  0.
   586  5.85  0.  0.  0.
   587  5.86  0.  0.  0.
   588  5.87  0.  0.  0.
   589  5.88  0.  0.  0.
   590  5.89  0.  0.  0.
   591  5.90  0.  0.  0.
   592  5.91  0.  0.  0.
   593  5.92  0.  0.  0.
   594  5.93  0.  0.  0.
   595  5.94  0.  0.  0.
   596  5.95  0.  0.  0.
   597  5.96  0.  0.  0.
   598  5.97  0.  0.  0.
   599  5.98  0.  0.  0.
   600  5.99  0.  0.  0.
   1                         7.6797774400308E+00 -1.6107643465416E+00  9.6644205599822E-02
     1  0.0000000000000E+00 -8.5038991959330E-09 -1.2444468604905E-08 -7.3244081910673E-09
     2  1.0000000000000E-02  4.6625194948932E-03  4.0233814477299E-04 -4.6588397433850E-03
     3  2.0000000000000E-02  1.8609822581349E-02  1.6153945799906E-03 -1.8558298128751E-02
     4  3.0000000000000E-02  4.1721301487836E-02  3.6570636130428E-03 -4.1468059978696E-02
     5  4.0000000000000E-02  7.3796478696631E-02  6.5564055427190E-03 -7.3007158017877E-02
     6  5.0000000000000E-02  1.1455583543995E-01  1.0352531703032E-02 -1.1264830996522E-01
     7  6.0000000000000E-02  1.6364202082854E-01  1.5093103063412E-02 -1.5972398877368E-01
     8  7.0000000000000E-02  2.2062148751402E-01  2.0832499193558E-02 -2.1343422019557E-01
     9  8.0000000000000E-02  2.8498660829037E-01  2.7629726845693E-02 -2.7285609452708E-01
    10  9.0000000000000E-02  3.5615833334255E-01  3.5546147206008E-02 -3.3695496823293E-01
    11  1.0000000000000E-01  4.3348944951465E-01  4.4643107641376E-02 -4.0459731575878E-01
    12  1.1000000000000E-01  5.1626850070617E-01  5.4979567249539E-02 -4.7456517203504E-01
    13  1.2000000000000E-01  6.0372442218558E-01  6.6609805567146E-02 -5.4557208203693E-01
    14  1.3000000000000E-01  6.9503193127636E-01  7.9581300385581E-02 -6.1628044563833E-01
    15  1.4000000000000E-01  7.8931770273305E-01  9.3932853884419E-02 -6.8532011448000E-01
    16  1.5000000000000E-01  8.8566733955821E-01  1.0969303645897E-01 -7.5130806351226E-01
    17  1.6000000000000E-01  9.8313312954353E-01  1.2687900505135E-01 -8.1286892432902E-01
    18  1.7000000000000E-01  1.0807425551123E+00  1.4549573796028E-01 -8.6865613163384E-01
    19  1.8000000000000E-01  1.1775074998702E+00  1.6553571155753E-01 -9.1737339955047E-01
    20  1.9000000000000E-01  1.2724340704990E+00  1.8697902670311E-01 -9.5779621248466E-01
    21  2.0000000000000E-01  1.3645329281612E+00  2.0979397459653E-01 -9.8879298736191E-01
    22  2.1000000000000E-01  1.4528300003677E+00  2.3393801402050E-01 -1.0093455417798E+00
    23  2.2000000000000E-01  1.5363774232040E+00  2.5935911511293E-01 -1.0185684873049E+00
    24  2.3000000000000E-01  1.6142645457945E+00  2.8599740960389E-01 -1.0157271600407E+00
    25  2.4000000000000E-01  1.6856288146953E+00  3.1378707447816E-01 -1.0002537027222E+00
    26  2.5000000000000E-01  1.7496663462234E+00  3.4265836579926E-01 -9.7176092470602E-01
    27  2.6000000000000E-01  1.8056419900901E+00  3.7253971238629E-01 -9.3005358880203E-01
    28  2.7000000000000E-01  1.8528986884847E+00  4.0335977548295E-01 -8.7513680704175E-01
    29  2.8000000000000E-01  1.8908659411490E+00  4.3504938068542E-01 -8.0722127099151E-01
    30  2.9000000000000E-01  1.9190671989931E+00  4.6754323225064E-01 -7.2672509548602E-01
    31  3.0000000000000E-01  1.9371260262460E+00  5.0078132739652E-01 -6.3427211673891E-01
    32  3.1000000000000E-01  1.9447708936211E+00  5.3470999910227E-01 -5.3068655537563E-01
    33  3.2000000000000E-01  1.9418384919532E+00  5.6928252985528E-01 -4.1698403042479E-01
    34  3.3000000000000E-01  1.9282754864886E+00  6.0445929529058E-01 -2.9435898981069E-01
    35  3.4000000000000E-01  1.9041386656271E+00  6.4020741514082E-01 -1.6416870431602E-01
    36  3.5000000000000E-01  1.8695934734266E+00  6.7649990868862E-01 -2.7914053076364E-02
    37  3.6000000000000E-01  1.8249109515289E+00  7.1331437225914E-01  1.1278259291108E-01
    38  3.7000000000000E-01  1.7704631522301E+00  7.5063121644222E-01  2.5620200937098E-01
    39  3.8000000000000E-01  1.7067171190970E+00  7.8843151992127E-01  4.0055483340807E-01
    40  3.9000000000000E-01  1.6342275637170E+00  8.2669457426293E-01  5.4400985149773E-01
    41  4.0000000000000E-01  1.5536283958679E+00  8.6539520908883E-01  6.8472331265050E-01
    42  4.1000000000000E-01  1.4656232886890E+00  9.0450099909265E-01  8.2086868606668E-01
    43  4.2000000000000E-01  1.3709754795686E+00  9.4396946286242E-01  9.5066626423004E-01
    44  4.3000000000000E-01  1.2704970208301E+00  9.8374536802918E-01  1.0724120089990E+00
    45  4.4000000000000E-01  1.1650377015145E+00  1.0237582576322E+00  1.1845050502494E+00
    46  4.5000000000000E-01  1.0554738624079E+00  1.0639203086681E+00  1.2854732739271E+00
    47  4.6000000000000E-01  9.4269732098586E-01  1.1041246256299E+00  1.3739964784341E+00
    48  4.7000000000000E-01  8.2760461137996E-01  1.1442440596603E+00  1.4489266340935E+00
    49  4.8000000000000E-01  7.1108672725903E-01  1.1841306281030E+00  1.5093048485562E+00
    50  4.9000000000000E-01  5.9401953332156E-01  1.2236155902526E+00  1.5543747195785E+00
    51  5.0000000000000E-01  4.7725498472049E-01  1.2625102136093E+00  1.5835918434189E+00
    52  5.1000000000000E-01  3.6161326416356E-01  1.3006072416773E+00  1.5966293396896E+00
    53  5.2000000000000E-01  2.4787591472032E-01  1.3376830501291E+00  1.5933793491958E+00
    54  5.3000000000000E-01  1.3678001366645E-01  1.3735004538492E+00  1.5739505573048E+00
    55  5.4000000000000E-01  2.9013400181057E-02  1.4078121038654E+00  1.5386618889058E+00
    56  5.5000000000000E-01 -7.4789061460982E-02  1.4403643913329E+00  1.4880326093245E+00
    57  5.6000000000000E-01 -1.7404823029237E-01  1.4709017563885E+00  1.4227691460621E+00
    58  5.7000000000000E-01 -2.6824252103725E-01  1.4991712835721E+00  1.3437490166336E+00
    59  5.8000000000000E-01 -3.5690891385722E-01  1.5249274532665E+00  1.2520023060966E+00
    60  5.9000000000000E-01 -4.3964325085376E-01  1.5479369107267E+00  1.1486911825001E+00
    61  6.0000000000000E-01 -5.1609993926155E-01  1.5679831111172E+00  1.0350879683217E+00
    62  6.1000000000000E-01 -5.8599118606729E-01  1.5848707007147E+00  9.1255230035832E-01
    63  6.2000000000000E-01 -6.4908588780980E-01  1.5984295010839E+00  7.8250790936525E-01
    64  6.3000000000000E-01 -7.0520829275384E-01  1.6085179743984E+00  6.4641953440673E-01
    65  6.4000000000000E-01 -7.5423654090409E-01  1.6150260638170E+00  5.0577045627440E-01
    66  6.5000000000000E-01 -7.9610117106790E-01  1.6178773224051E+00  3.6204109082316E-01
    67  6.6000000000000E-01 -8.3078366420562E-01  1.6170302668473E+00  2.1668902845068E-01
    68  6.7000000000000E-01 -8.5831506960043E-01  1.6124789173368E+00  7.1130842343906E-02
    69  6.8000000000000E-01 -8.7877473602646E-01  1.6042525116507E+00 -7.3274082053372E-02
    70  6.9000000000000E-01 -8.9228914526263E-01  1.5924144085816E+00 -2.1523751803924E-01
    71  7.0000000000000E-01 -8.9903082118280E-01  1.5770602226000E+00 -3.5355406623309E-01
    72  7.1000000000000E-01 -8.9921726542414E-01  1.5583152568951E+00 -4.8711049189539E-01
    73  7.2000000000000E-01 -8.9310985139809E-01  1.5363313248489E+00 -6.1489277224141E-01