Es    ONCVPSP-4.0.1  r_core=   1.15603   1.15603   1.33451   1.35057
99.0000     39.0000      230613    zatom,zion,pspd
8      11   3     4   600     0    pspcod,pspxc,lmax,lloc,mmax,r2well
5.99000000  5.00000000  0.00000000    rchrg fchrg qchrg
3     2     2     2     0    nproj
1     1           extension_switch
0                         2.4011212925588E+01  2.7790116228372E+00 -1.5767546552532E+00
1  0.0000000000000E+00 -7.3603889205742E-08  2.5248992063798E-07 -8.3754335689079E-09
2  1.0000000000000E-02  1.6178191779364E-01 -7.0111627475318E-02  3.4840338723539E-02
3  2.0000000000000E-02  3.2227789636079E-01 -1.3825386488262E-01  6.9532097425419E-02
4  3.0000000000000E-02  4.8022204450128E-01 -2.0251290594711E-01  1.0392892611629E-01
5  4.0000000000000E-02  6.3438799914998E-01 -2.6108421721716E-01  1.3788887609483E-01
6  5.0000000000000E-02  7.8360728991137E-01 -3.1232250703448E-01  1.7127645599446E-01
7  6.0000000000000E-02  9.2678608012466E-01 -3.5478628548611E-01  2.0396452077435E-01
8  7.0000000000000E-02  1.0629198343309E+00 -3.8727552449369E-01  2.3583594843391E-01
9  8.0000000000000E-02  1.1911055356181E+00 -4.0886117968628E-01  2.6678506760536E-01
10  9.0000000000000E-02  1.3105511629962E+00 -4.1890563313489E-01  2.9671880893609E-01
11  1.0000000000000E-01  1.4205822354537E+00 -4.1707344729549E-01  3.2555756388203E-01
12  1.1000000000000E-01  1.5206453320445E+00 -4.0333217324148E-01  3.5323574572383E-01
13  1.2000000000000E-01  1.6103086024097E+00 -3.7794331730334E-01  3.7970205879566E-01
14  1.3000000000000E-01  1.6892593856127E+00 -3.4144392610466E-01  4.0491949258763E-01
15  1.4000000000000E-01  1.7572991532018E+00 -2.9461958742836E-01  4.2886506707497E-01
16  1.5000000000000E-01  1.8143360813495E+00 -2.3846995079686E-01  4.5152936390881E-01
17  1.6000000000000E-01  1.8603756334552E+00 -1.7416813572170E-01  4.7291588460665E-01
18  1.7000000000000E-01  1.8955095959106E+00 -1.0301560747460E-01  4.9304028131286E-01
19  1.8000000000000E-01  1.9199040535670E+00 -2.6394252133610E-02  5.1192950786250E-01
20  1.9000000000000E-01  1.9337868162405E+00  5.4282530992647E-02  5.2962093867609E-01
21  2.0000000000000E-01  1.9374348124977E+00  1.3761788375845E-01  5.4616150044730E-01
22  2.1000000000000E-01  1.9311619518895E+00  2.2227690603254E-01  5.6160685677381E-01
23  2.2000000000000E-01  1.9153079224295E+00  3.0702776913725E-01  5.7602067904439E-01
24  2.3000000000000E-01  1.8902283378565E+00  3.9077704091374E-01  5.8947402834318E-01
25  2.4000000000000E-01  1.8562865811806E+00  4.7259797379141E-01  6.0204486326337E-01
26  2.5000000000000E-01  1.8138476098861E+00  5.5175078996356E-01  6.1381767779699E-01
27  2.6000000000000E-01  1.7632738971712E+00  6.2769431604333E-01  6.2488326239467E-01
28  2.7000000000000E-01  1.7049235863061E+00  7.0008866127538E-01  6.3533857040138E-01
29  2.8000000000000E-01  1.6391508354273E+00  7.6878898546964E-01  6.4528666190747E-01
30  2.9000000000000E-01  1.5663082317670E+00  8.3383075190903E-01  6.5483668812172E-01
31  3.0000000000000E-01  1.4867510613031E+00  8.9540719328610E-01  6.6410387214377E-01
32  3.1000000000000E-01  1.4008431357675E+00  9.5384002258512E-01  6.7320943689085E-01
33  3.2000000000000E-01  1.3089638071805E+00  1.0095446842154E+00  6.8228042823614E-01
34  3.3000000000000E-01  1.2115157434261E+00  1.0629916536087E+00  6.9144938136135E-01
35  3.4000000000000E-01  1.1089329991017E+00  1.1146654478517E+00  7.0085378102047E-01
36  3.5000000000000E-01  1.0016888955633E+00  1.1650230998915E+00  7.1063527184139E-01
37  3.6000000000000E-01  8.9030322358628E-01  1.2144538710227E+00  7.2093858282343E-01
38  3.7000000000000E-01  7.7534830148227E-01  1.2632419299426E+00  7.3191014056901E-01
39  3.8000000000000E-01  6.5745346015302E-01  1.3115336134237E+00  7.4369635815397E-01
40  3.9000000000000E-01  5.3730758302651E-01  1.3593107079406E+00  7.5644160043470E-01
41  4.0000000000000E-01  4.1565940097331E-01  1.4063709601037E+00  7.7028584147023E-01
42  4.1000000000000E-01  2.9331532743509E-01  1.4523167453081E+00  7.8536204500709E-01
43  4.2000000000000E-01  1.7113471387749E-01  1.4965525091984E+00  8.0179331399872E-01
44  4.3000000000000E-01  5.0022506698384E-02  1.5382912573453E+00  8.1968986926806E-01
45  4.4000000000000E-01 -6.9080609973368E-02  1.5765700177937E+00  8.3914593004518E-01
46  4.5000000000000E-01 -1.8521039951214E-01  1.6102738521851E+00  8.6023657963998E-01
47  4.6000000000000E-01 -2.9739330390323E-01  1.6381676571779E+00  8.8301470743019E-01
48  4.7000000000000E-01 -4.0466235172346E-01  1.6589346915176E+00  9.0750812323543E-01
49  4.8000000000000E-01 -5.0607429973970E-01  1.6712204968892E+00  9.3371694169883E-01
50  4.9000000000000E-01 -6.0072750606783E-01  1.6736806626697E+00  9.6161133232410E-01
51  5.0000000000000E-01 -6.8777999176691E-01  1.6650307240404E+00  9.9112972526913E-01
52  5.1000000000000E-01 -7.6646712602669E-01  1.6440963856030E+00  1.0221775539702E+00
53  5.2000000000000E-01 -8.3611836861924E-01  1.6098622322119E+00  1.0546266033956E+00
54  5.3000000000000E-01 -8.9617252215358E-01  1.5615171262406E+00  1.0883150175682E+00
55  5.4000000000000E-01 -9.4619098524730E-01  1.4984945943890E+00  1.1230480024397E+00
56  5.5000000000000E-01 -9.8586855463348E-01  1.4205066734002E+00  1.1585992408331E+00
57  5.6000000000000E-01 -1.0150413973873E+00  1.3275699063318E+00  1.1947130156633E+00
58  5.7000000000000E-01 -1.0336919012272E+00  1.2200224509170E+00  1.2311070167221E+00
59  5.8000000000000E-01 -1.0419502080559E+00  1.0985315688843E+00  1.2674757857301E+00
60  5.9000000000000E-01 -1.0400923400328E+00  9.6409109842452E-01  1.3034947348533E+00
61  6.0000000000000E-01 -1.0285349347431E+00  8.1800885890395E-01  1.3388246561843E+00
62  6.1000000000000E-01 -1.0078267125971E+00  6.6188428466258E-01  1.3731166244418E+00
63  6.2000000000000E-01 -9.7863690165759E-01  4.9757692059717E-01  1.4060171829211E+00
64  6.3000000000000E-01 -9.4174093906572E-01  3.2716672408400E-01  1.4371736939810E+00
65  6.4000000000000E-01 -8.9800385084109E-01  1.5290739451982E-01  1.4662397304120E+00
66  6.5000000000000E-01 -8.4836178029022E-01 -2.2825816317624E-02  1.4928803830657E+00
67  6.6000000000000E-01 -7.9380218729996E-01 -1.9759218068906E-01  1.5167773631771E+00
68  6.7000000000000E-01 -7.3534327482435E-01 -3.6894370505192E-01  1.5376337847431E+00
69  6.8000000000000E-01 -6.7401321396176E-01 -5.3448366243861E-01  1.5551785228649E+00
70  6.9000000000000E-01 -6.1082973495142E-01 -6.9192364047207E-01  1.5691700577085E+00
71  7.0000000000000E-01 -5.4678062868963E-01 -8.3913736566395E-01  1.5793997301441E+00
72  7.1000000000000E-01 -4.8280566313943E-01 -9.7420969078621E-01  1.5856943535727E+00
73  7.2000000000000E-01 -4.1978036306825E-01 -1.0954793116689E+00  1.5879181462170E+00
74  7.3000000000000E-01 -3.5850203221794E-01 -1.2015740054060E+00  1.5859739685092E+00
75  7.4000000000000E-01 -2.9967831703448E-01 -1.2914374447949E+00  1.5798038703736E+00
76  7.5000000000000E-01 -2.4391852354472E-01 -1.3643469338088E+00  1.5693889724422E+00
77  7.6000000000000E-01 -1.9172780711827E-01 -1.4199217152521E+00  1.5547487228615E+00
78  7.7000000000000E-01 -1.4350426202242E-01 -1.4581218133385E+00  1.5359395867240E+00
79  7.8000000000000E-01 -9.9538847130722E-02 -1.4792376797490E+00  1.5130532377852E+00
80  7.9000000000000E-01 -6.0017998943854E-02 -1.4838712012788E+00  1.4862143316107E+00
81  8.0000000000000E-01 -2.5028705992486E-02 -1.4729088908870E+00  1.4555779453864E+00
82  8.1000000000000E-01  5.4342479141167E-03 -1.4474883134531E+00  1.4213267722262E+00
83  8.2000000000000E-01  3.1459218358388E-02 -1.4089589859539E+00  1.3836681569654E+00
84  8.3000000000000E-01  5.3207200151448E-02 -1.3588391339605E+00  1.3428310563416E+00
85  8.4000000000000E-01  7.0900305510527E-02 -1.2987697789699E+00  1.2990629994741E+00
86  8.5000000000000E-01  8.4809644867844E-02 -1.2304676726558E+00  1.2526271151106E+00
87  8.6000000000000E-01  9.5243031199426E-02 -1.1556785849919E+00  1.2037992807884E+00
88  8.7000000000000E-01  1.0253291162488E-01 -1.0761323954046E+00  1.1528654364741E+00
89  8.8000000000000E-01  1.0702490037668E-01 -9.9350133320884E-01  1.1001190920939E+00
90  8.9000000000000E-01  1.0906724663883E-01 -9.0936257038776E-01  1.0458590453287E+00
91  9.0000000000000E-01  1.0900152103607E-01 -8.2516619206756E-01  9.9038731380535E-01
92  9.1000000000000E-01  1.0715474769784E-01 -7.4220936424862E-01  9.3400727498350E-01
93  9.2000000000000E-01  1.0383314684916E-01 -6.6161729118643E-01  8.7702199817190E-01
94  9.3000000000000E-01  9.9317587753659E-02 -5.8433131290946E-01  8.1973274663358E-01
95  9.4000000000000E-01  9.3860785368134E-02 -5.1110424304000E-01  7.6243762397832E-01
96  9.5000000000000E-01  8.7686207771427E-02 -4.4250279376211E-01  7.0543033814697E-01
97  9.6000000000000E-01  8.0988596552046E-02 -3.7891668318738E-01  6.4899905827640E-01
98  9.7000000000000E-01  7.3935939653342E-02 -3.2057377374371E-01  5.9342534443540E-01
99  9.8000000000000E-01  6.6672676060328E-02 -2.6756035060830E-01  5.3898313732030E-01
100  9.9000000000000E-01  5.9323854068997E-02 -2.1984541717723E-01  4.8593780401069E-01
101  1.0000000000000E+00  5.1999909090566E-02 -1.7730765897818E-01  4.3454524619531E-01
102  1.0100000000000E+00  4.4801672004152E-02 -1.3976350596898E-01  3.8505108812112E-01
103  1.0200000000000E+00  3.7825163501491E-02 -1.0699450189740E-01  3.3768997203562E-01
104  1.0300000000000E+00  3.1165671761331E-02 -7.8771962960054E-02  2.9268499814837E-01
105  1.0400000000000E+00  2.4920547989799E-02 -5.4876670222569E-02  2.5024735311081E-01
106  1.0500000000000E+00  1.9190084502221E-02 -3.5111084186243E-02  2.1057617468400E-01
107  1.0600000000000E+00  1.4075760290864E-02 -1.9301286953812E-02  1.7385869959277E-01
108  1.0700000000000E+00  9.6750468489948E-03 -7.2855398998794E-03  1.4027073552010E-01
109  1.0800000000000E+00  6.0718803217081E-03  1.1139551324068E-03  1.0997750467975E-01
110  1.0900000000000E+00  3.3215950454585E-03  6.1404774270616E-03  8.3134720788311E-02
111  1.1000000000000E+00  1.4264755672687E-03  8.1853641199875E-03  5.9887402212618E-02
112  1.1100000000000E+00  2.4983614400970E-04  8.0584321849141E-03  4.0315824777144E-02
113  1.1200000000000E+00 -3.3394458323309E-04  6.5185988764872E-03  2.4548157363206E-02
114  1.1300000000000E+00 -4.5235718857254E-04  4.2355932954752E-03  1.2686596665161E-02
115  1.1400000000000E+00 -2.8550963583476E-04  1.9242797461423E-03  4.7482729520905E-03
116  1.1500000000000E+00 -5.8561020364222E-05  3.2233020001838E-04  6.7113799705790E-04
117  1.1600000000000E+00  3.9087547968699E-06 -1.9359475739634E-05 -3.5889217951622E-05
118  1.1700000000000E+00  5.9793184683455E-09 -3.3303200716366E-08 -7.0046503529861E-08
119  1.18 -0.  0. -0.
120  1.19  0.  0.  0.
121  1.20  0.  0.  0.
122  1.21  0.  0.  0.
123  1.22  0.  0.  0.
124  1.23  0.  0.  0.
125  1.24  0.  0.  0.
126  1.25  0.  0.  0.
127  1.26  0.  0.  0.
128  1.27  0.  0.  0.
129  1.28  0.  0.  0.
130  1.29  0.  0.  0.
131  1.30  0.  0.  0.
132  1.31  0.  0.  0.
133  1.32  0.  0.  0.
134  1.33  0.  0.  0.
135  1.34  0.  0.  0.
136  1.35  0.  0.  0.
137  1.36  0.  0.  0.
138  1.37  0.  0.  0.
139  1.38  0.  0.  0.
140  1.39  0.  0.  0.
141  1.40  0.  0.  0.
142  1.41  0.  0.  0.
143  1.42  0.  0.  0.
144  1.43  0.  0.  0.
145  1.44  0.  0.  0.
146  1.45  0.  0.  0.
147  1.46  0.  0.  0.
148  1.47  0.  0.  0.
149  1.48  0.  0.  0.
150  1.49  0.  0.  0.
151  1.50  0.  0.  0.
152  1.51  0.  0.  0.
153  1.52  0.  0.  0.
154  1.53  0.  0.  0.
155  1.54  0.  0.  0.
156  1.55  0.  0.  0.
157  1.56  0.  0.  0.
158  1.57  0.  0.  0.
159  1.58  0.  0.  0.
160  1.59  0.  0.  0.
161  1.60  0.  0.  0.
162  1.61  0.  0.  0.
163  1.62  0.  0.  0.
164  1.63  0.  0.  0.
165  1.64  0.  0.  0.
166  1.65  0.  0.  0.
167  1.66  0.  0.  0.
168  1.67  0.  0.  0.
169  1.68  0.  0.  0.
170  1.69  0.  0.  0.
171  1.70  0.  0.  0.
172  1.71  0.  0.  0.
173  1.72  0.  0.  0.
174  1.73  0.  0.  0.
175  1.74  0.  0.  0.
176  1.75  0.  0.  0.
177  1.76  0.  0.  0.
178  1.77  0.  0.  0.
179  1.78  0.  0.  0.
180  1.79  0.  0.  0.
181  1.80  0.  0.  0.
182  1.81  0.  0.  0.
183  1.82  0.  0.  0.
184  1.83  0.  0.  0.
185  1.84  0.  0.  0.
186  1.85  0.  0.  0.
187  1.86  0.  0.  0.
188  1.87  0.  0.  0.
189  1.88  0.  0.  0.
190  1.89  0.  0.  0.
191  1.90  0.  0.  0.
192  1.91  0.  0.  0.
193  1.92  0.  0.  0.
194  1.93  0.  0.  0.
195  1.94  0.  0.  0.
196  1.95  0.  0.  0.
197  1.96  0.  0.  0.
198  1.97  0.  0.  0.
199  1.98  0.  0.  0.
200  1.99  0.  0.  0.
201  2.00  0.  0.  0.
202  2.01  0.  0.  0.
203  2.02  0.  0.  0.
204  2.03  0.  0.  0.
205  2.04  0.  0.  0.
206  2.05  0.  0.  0.
207  2.06  0.  0.  0.
208  2.07  0.  0.  0.
209  2.08  0.  0.  0.
210  2.09  0.  0.  0.
211  2.10  0.  0.  0.
212  2.11  0.  0.  0.
213  2.12  0.  0.  0.
214  2.13  0.  0.  0.
215  2.14  0.  0.  0.
216  2.15  0.  0.  0.
217  2.16  0.  0.  0.
218  2.17  0.  0.  0.
219  2.18  0.  0.  0.
220  2.19  0.  0.  0.
221  2.20  0.  0.  0.
222  2.21  0.  0.  0.
223  2.22  0.  0.  0.
224  2.23  0.  0.  0.
225  2.24  0.  0.  0.
226  2.25  0.  0.  0.
227  2.26  0.  0.  0.
228  2.27  0.  0.  0.
229  2.28  0.  0.  0.
230  2.29  0.  0.  0.
231  2.30  0.  0.  0.
232  2.31  0.  0.  0.
233  2.32  0.  0.  0.
234  2.33  0.  0.  0.
235  2.34  0.  0.  0.
236  2.35  0.  0.  0.
237  2.36  0.  0.  0.
238  2.37  0.  0.  0.
239  2.38  0.  0.  0.
240  2.39  0.  0.  0.
241  2.40  0.  0.  0.
242  2.41  0.  0.  0.
243  2.42  0.  0.  0.
244  2.43  0.  0.  0.
245  2.44  0.  0.  0.
246  2.45  0.  0.  0.
247  2.46  0.  0.  0.
248  2.47  0.  0.  0.
249  2.48  0.  0.  0.
250  2.49  0.  0.  0.
251  2.50  0.  0.  0.
252  2.51  0.  0.  0.
253  2.52  0.  0.  0.
254  2.53  0.  0.  0.
255  2.54  0.  0.  0.
256  2.55  0.  0.  0.
257  2.56  0.  0.  0.
258  2.57  0.  0.  0.
259  2.58  0.  0.  0.
260  2.59  0.  0.  0.
261  2.60  0.  0.  0.
262  2.61  0.  0.  0.
263  2.62  0.  0.  0.
264  2.63  0.  0.  0.
265  2.64  0.  0.  0.
266  2.65  0.  0.  0.
267  2.66  0.  0.  0.
268  2.67  0.  0.  0.
269  2.68  0.  0.  0.
270  2.69  0.  0.  0.
271  2.70  0.  0.  0.
272  2.71  0.  0.  0.
273  2.72  0.  0.  0.
274  2.73  0.  0.  0.
275  2.74  0.  0.  0.
276  2.75  0.  0.  0.
277  2.76  0.  0.  0.
278  2.77  0.  0.  0.
279  2.78  0.  0.  0.
280  2.79  0.  0.  0.
281  2.80  0.  0.  0.
282  2.81  0.  0.  0.
283  2.82  0.  0.  0.
284  2.83  0.  0.  0.
285  2.84  0.  0.  0.
286  2.85  0.  0.  0.
287  2.86  0.  0.  0.
288  2.87  0.  0.  0.
289  2.88  0.  0.  0.
290  2.89  0.  0.  0.
291  2.90  0.  0.  0.
292  2.91  0.  0.  0.
293  2.92  0.  0.  0.
294  2.93  0.  0.  0.
295  2.94  0.  0.  0.
296  2.95  0.  0.  0.
297  2.96  0.  0.  0.
298  2.97  0.  0.  0.
299  2.98  0.  0.  0.
300  2.99  0.  0.  0.
301  3.00  0.  0.  0.
302  3.01  0.  0.  0.
303  3.02  0.  0.  0.
304  3.03  0.  0.  0.
305  3.04  0.  0.  0.
306  3.05  0.  0.  0.
307  3.06  0.  0.  0.
308  3.07  0.  0.  0.
309  3.08  0.  0.  0.
310  3.09  0.  0.  0.
311  3.10  0.  0.  0.
312  3.11  0.  0.  0.
313  3.12  0.  0.  0.
314  3.13  0.  0.  0.
315  3.14  0.  0.  0.
316  3.15  0.  0.  0.
317  3.16  0.  0.  0.
318  3.17  0.  0.  0.
319  3.18  0.  0.  0.
320  3.19  0.  0.  0.
321  3.20  0.  0.  0.
322  3.21  0.  0.  0.
323  3.22  0.  0.  0.
324  3.23  0.  0.  0.
325  3.24  0.  0.  0.
326  3.25  0.  0.  0.
327  3.26  0.  0.  0.
328  3.27  0.  0.  0.
329  3.28  0.  0.  0.
330  3.29  0.  0.  0.
331  3.30  0.  0.  0.
332  3.31  0.  0.  0.
333  3.32  0.  0.  0.
334  3.33  0.  0.  0.
335  3.34  0.  0.  0.
336  3.35  0.  0.  0.
337  3.36  0.  0.  0.
338  3.37  0.  0.  0.
339  3.38  0.  0.  0.
340  3.39  0.  0.  0.
341  3.40  0.  0.  0.
342  3.41  0.  0.  0.
343  3.42  0.  0.  0.
344  3.43  0.  0.  0.
345  3.44  0.  0.  0.
346  3.45  0.  0.  0.
347  3.46  0.  0.  0.
348  3.47  0.  0.  0.
349  3.48  0.  0.  0.
350  3.49  0.  0.  0.
351  3.50  0.  0.  0.
352  3.51  0.  0.  0.
353  3.52  0.  0.  0.
354  3.53  0.  0.  0.
355  3.54  0.  0.  0.
356  3.55  0.  0.  0.
357  3.56  0.  0.  0.
358  3.57  0.  0.  0.
359  3.58  0.  0.  0.
360  3.59  0.  0.  0.
361  3.60  0.  0.  0.
362  3.61  0.  0.  0.
363  3.62  0.  0.  0.
364  3.63  0.  0.  0.
365  3.64  0.  0.  0.
366  3.65  0.  0.  0.
367  3.66  0.  0.  0.
368  3.67  0.  0.  0.
369  3.68  0.  0.  0.
370  3.69  0.  0.  0.
371  3.70  0.  0.  0.
372  3.71  0.  0.  0.
373  3.72  0.  0.  0.
374  3.73  0.  0.  0.
375  3.74  0.  0.  0.
376  3.75  0.  0.  0.
377  3.76  0.  0.  0.
378  3.77  0.  0.  0.
379  3.78  0.  0.  0.
380  3.79  0.  0.  0.
381  3.80  0.  0.  0.
382  3.81  0.  0.  0.
383  3.82  0.  0.  0.
384  3.83  0.  0.  0.
385  3.84  0.  0.  0.
386  3.85  0.  0.  0.
387  3.86  0.  0.  0.
388  3.87  0.  0.  0.
389  3.88  0.  0.  0.
390  3.89  0.  0.  0.
391  3.90  0.  0.  0.
392  3.91  0.  0.  0.
393  3.92  0.  0.  0.
394  3.93  0.  0.  0.
395  3.94  0.  0.  0.
396  3.95  0.  0.  0.
397  3.96  0.  0.  0.
398  3.97  0.  0.  0.
399  3.98  0.  0.  0.
400  3.99  0.  0.  0.
401  4.00  0.  0.  0.
402  4.01  0.  0.  0.
403  4.02  0.  0.  0.
404  4.03  0.  0.  0.
405  4.04  0.  0.  0.
406  4.05  0.  0.  0.
407  4.06  0.  0.  0.
408  4.07  0.  0.  0.
409  4.08  0.  0.  0.
410  4.09  0.  0.  0.
411  4.10  0.  0.  0.
412  4.11  0.  0.  0.
413  4.12  0.  0.  0.
414  4.13  0.  0.  0.
415  4.14  0.  0.  0.
416  4.15  0.  0.  0.
417  4.16  0.  0.  0.
418  4.17  0.  0.  0.
419  4.18  0.  0.  0.
420  4.19  0.  0.  0.
421  4.20  0.  0.  0.
422  4.21  0.  0.  0.
423  4.22  0.  0.  0.
424  4.23  0.  0.  0.
425  4.24  0.  0.  0.
426  4.25  0.  0.  0.
427  4.26  0.  0.  0.
428  4.27  0.  0.  0.
429  4.28  0.  0.  0.
430  4.29  0.  0.  0.
431  4.30  0.  0.  0.
432  4.31  0.  0.  0.
433  4.32  0.  0.  0.
434  4.33  0.  0.  0.
435  4.34  0.  0.  0.
436  4.35  0.  0.  0.
437  4.36  0.  0.  0.
438  4.37  0.  0.  0.
439  4.38  0.  0.  0.
440  4.39  0.  0.  0.
441  4.40  0.  0.  0.
442  4.41  0.  0.  0.
443  4.42  0.  0.  0.
444  4.43  0.  0.  0.
445  4.44  0.  0.  0.
446  4.45  0.  0.  0.
447  4.46  0.  0.  0.
448  4.47  0.  0.  0.
449  4.48  0.  0.  0.
450  4.49  0.  0.  0.
451  4.50  0.  0.  0.
452  4.51  0.  0.  0.
453  4.52  0.  0.  0.
454  4.53  0.  0.  0.
455  4.54  0.  0.  0.
456  4.55  0.  0.  0.
457  4.56  0.  0.  0.
458  4.57  0.  0.  0.
459  4.58  0.  0.  0.
460  4.59  0.  0.  0.
461  4.60  0.  0.  0.
462  4.61  0.  0.  0.
463  4.62  0.  0.  0.
464  4.63  0.  0.  0.
465  4.64  0.  0.  0.
466  4.65  0.  0.  0.
467  4.66  0.  0.  0.
468  4.67  0.  0.  0.
469  4.68  0.  0.  0.
470  4.69  0.  0.  0.
471  4.70  0.  0.  0.
472  4.71  0.  0.  0.
473  4.72  0.  0.  0.
474  4.73  0.  0.  0.
475  4.74  0.  0.  0.
476  4.75  0.  0.  0.
477  4.76  0.  0.  0.
478  4.77  0.  0.  0.
479  4.78  0.  0.  0.
480  4.79  0.  0.  0.
481  4.80  0.  0.  0.
482  4.81  0.  0.  0.
483  4.82  0.  0.  0.
484  4.83  0.  0.  0.
485  4.84  0.  0.  0.
486  4.85  0.  0.  0.
487  4.86  0.  0.  0.
488  4.87  0.  0.  0.
489  4.88  0.  0.  0.
490  4.89  0.  0.  0.
491  4.90  0.  0.  0.
492  4.91  0.  0.  0.
493  4.92  0.  0.  0.
494  4.93  0.  0.  0.
495  4.94  0.  0.  0.
496  4.95  0.  0.  0.
497  4.96  0.  0.  0.
498  4.97  0.  0.  0.
499  4.98  0.  0.  0.
500  4.99  0.  0.  0.
501  5.00  0.  0.  0.
502  5.01  0.  0.  0.
503  5.02  0.  0.  0.
504  5.03  0.  0.  0.
505  5.04  0.  0.  0.
506  5.05  0.  0.  0.
507  5.06  0.  0.  0.
508  5.07  0.  0.  0.
509  5.08  0.  0.  0.
510  5.09  0.  0.  0.
511  5.10  0.  0.  0.
512  5.11  0.  0.  0.
513  5.12  0.  0.  0.
514  5.13  0.  0.  0.
515  5.14  0.  0.  0.
516  5.15  0.  0.  0.
517  5.16  0.  0.  0.
518  5.17  0.  0.  0.
519  5.18  0.  0.  0.
520  5.19  0.  0.  0.
521  5.20  0.  0.  0.
522  5.21  0.  0.  0.
523  5.22  0.  0.  0.
524  5.23  0.  0.  0.
525  5.24  0.  0.  0.
526  5.25  0.  0.  0.
527  5.26  0.  0.  0.
528  5.27  0.  0.  0.
529  5.28  0.  0.  0.
530  5.29  0.  0.  0.
531  5.30  0.  0.  0.
532  5.31  0.  0.  0.
533  5.32  0.  0.  0.
534  5.33  0.  0.  0.
535  5.34  0.  0.  0.
536  5.35  0.  0.  0.
537  5.36  0.  0.  0.
538  5.37  0.  0.  0.
539  5.38  0.  0.  0.
540  5.39  0.  0.  0.
541  5.40  0.  0.  0.
542  5.41  0.  0.  0.
543  5.42  0.  0.  0.
544  5.43  0.  0.  0.
545  5.44  0.  0.  0.
546  5.45  0.  0.  0.
547  5.46  0.  0.  0.
548  5.47  0.  0.  0.
549  5.48  0.  0.  0.
550  5.49  0.  0.  0.
551  5.50  0.  0.  0.
552  5.51  0.  0.  0.
553  5.52  0.  0.  0.
554  5.53  0.  0.  0.
555  5.54  0.  0.  0.
556  5.55  0.  0.  0.
557  5.56  0.  0.  0.
558  5.57  0.  0.  0.
559  5.58  0.  0.  0.
560  5.59  0.  0.  0.
561  5.60  0.  0.  0.
562  5.61  0.  0.  0.
563  5.62  0.  0.  0.
564  5.63  0.  0.  0.
565  5.64  0.  0.  0.
566  5.65  0.  0.  0.
567  5.66  0.  0.  0.
568  5.67  0.  0.  0.
569  5.68  0.  0.  0.
570  5.69  0.  0.  0.
571  5.70  0.  0.  0.
572  5.71  0.  0.  0.
573  5.72  0.  0.  0.
574  5.73  0.  0.  0.
575  5.74  0.  0.  0.
576  5.75  0.  0.  0.
577  5.76  0.  0.  0.
578  5.77  0.  0.  0.
579  5.78  0.  0.  0.
580  5.79  0.  0.  0.
581  5.80  0.  0.  0.
582  5.81  0.  0.  0.
583  5.82  0.  0.  0.
584  5.83  0.  0.  0.
585  5.84  0.  0.  0.
586  5.85  0.  0.  0.
587  5.86  0.  0.  0.
588  5.87  0.  0.  0.
589  5.88  0.  0.  0.
590  5.89  0.  0.  0.
591  5.90  0.  0.  0.
592  5.91  0.  0.  0.
593  5.92  0.  0.  0.
594  5.93  0.  0.  0.
595  5.94  0.  0.  0.
596  5.95  0.  0.  0.
597  5.96  0.  0.  0.
598  5.97  0.  0.  0.
599  5.98  0.  0.  0.
600  5.99  0.  0.  0.
1                         8.1380266797893E+00 -1.5046484339134E+00
1  0.0000000000000E+00 -8.7025389117201E-09 -1.5256883669629E-08
2  1.0000000000000E-02  4.5642129534714E-03  2.7572462890816E-04
3  2.0000000000000E-02  1.8218342118874E-02  1.1114635883149E-03
4  3.0000000000000E-02  4.0846996822046E-02  2.5326171073072E-03
5  4.0000000000000E-02  7.2258328023981E-02  4.5805462488812E-03
6  5.0000000000000E-02  1.1218475688530E-01  7.3111507917461E-03
7  6.0000000000000E-02  1.6028404421375E-01  1.0792950578290E-02
8  7.0000000000000E-02  2.1614074700094E-01  1.5104739412141E-02
9  8.0000000000000E-02  2.7926811695674E-01  2.0332895845650E-02
10  9.0000000000000E-02  3.4911050152708E-01  2.6568447321232E-02
11  1.0000000000000E-01  4.2504630990146E-01  3.3903992667252E-02
12  1.1000000000000E-01  5.0639160469633E-01  4.2430592577339E-02
13  1.2000000000000E-01  5.9240437420810E-01  5.2234738244375E-02
14  1.3000000000000E-01  6.8228953039950E-01  6.3395504750090E-02
15  1.4000000000000E-01  7.7520466431364E-01  7.5981988254426E-02
16  1.5000000000000E-01  8.7026657375828E-01  9.0051114759985E-02
17  1.6000000000000E-01  9.6655855837496E-01  1.0564589365948E-01
18  1.7000000000000E-01  1.0631384552408E+00  1.2279417194625E-01
19  1.8000000000000E-01  1.1590473646912E+00  1.4150792552279E-01
20  1.9000000000000E-01  1.2533189919292E+00  1.6178310320597E-01
21  2.0000000000000E-01  1.3449895060863E+00  1.8360001758087E-01
22  2.1000000000000E-01  1.4331077956212E+00  2.0692425560815E-01
23  2.2000000000000E-01  1.5167459781861E+00  2.3170806164842E-01
24  2.3000000000000E-01  1.5950100051951E+00  2.5789212710678E-01
25  2.4000000000000E-01  1.6670501870717E+00  2.8540770493481E-01
26  2.5000000000000E-01  1.7320714551911E+00  3.1417895438178E-01
27  2.6000000000000E-01  1.7893431713976E+00  3.4412541217602E-01
28  2.7000000000000E-01  1.8382082960451E+00  3.7516448112221E-01
29  2.8000000000000E-01  1.8780917309661E+00  4.0721382615586E-01
30  2.9000000000000E-01  1.9085076646633E+00  4.4019357127854E-01
31  3.0000000000000E-01  1.9290657631378E+00  4.7402819842110E-01
32  3.1000000000000E-01  1.9394760707924E+00  5.0864806089982E-01
33  3.2000000000000E-01  1.9395525112281E+00  5.4399043934318E-01
34  3.3000000000000E-01  1.9292149068061E+00  5.8000008623291E-01
35  3.4000000000000E-01  1.9084894677466E+00  6.1662922586040E-01
36  3.5000000000000E-01  1.8775077353384E+00  6.5383699878671E-01
37  3.6000000000000E-01  1.8365039985274E+00  6.9158836297821E-01
38  3.7000000000000E-01  1.7858112376640E+00  7.2985248679621E-01
39  3.8000000000000E-01  1.7258556824624E+00  7.6860069106290E-01
40  3.9000000000000E-01  1.6571501022025E+00  8.0780401764893E-01
41  4.0000000000000E-01  1.5802859739277E+00  8.4743051962345E-01
42  4.1000000000000E-01  1.4959246979709E+00  8.8744238226053E-01
43  4.2000000000000E-01  1.4047880488595E+00  9.2779299450277E-01
44  4.3000000000000E-01  1.3076480629039E+00  9.6842409638161E-01
45  4.4000000000000E-01  1.2053165711993E+00  1.0092631290808E+00
46  4.5000000000000E-01  1.0986345881463E+00  1.0502209106730E+00
47  4.6000000000000E-01  9.8846176095217E-01  1.0911897521084E+00
48  4.7000000000000E-01  8.7566607512665E-01  1.1320421150223E+00
49  4.8000000000000E-01  7.6111399515278E-01  1.1726298957548E+00
50  4.9000000000000E-01  6.4566119891346E-01  1.2127843992173E+00
51  5.0000000000000E-01  5.3014403985383E-01  1.2523170426067E+00
52  5.1000000000000E-01  4.1537184318131E-01  1.2910208032886E+00
53  5.2000000000000E-01  3.0212011266382E-01  1.3286723983797E+00
54  5.3000000000000E-01  1.9112469387194E-01  1.3650351566229E+00
55  5.4000000000000E-01  8.3076909138021E-02  1.3998625170845E+00
56  5.5000000000000E-01 -2.1380349824846E-02  1.4329020649832E+00
57  5.6000000000000E-01 -1.2165561274245E-01  1.4638999935279E+00
58  5.7000000000000E-01 -2.1721096993845E-01  1.4926058628325E+00
59  5.8000000000000E-01 -3.0756344447979E-01  1.5187775135157E+00
60  5.9000000000000E-01 -3.9228569699105E-01  1.5421859840481E+00
61  6.0000000000000E-01 -4.7100617268254E-01  1.5626202776737E+00
62  6.1000000000000E-01 -5.4340880456989E-01  1.5798918270079E+00
63  6.2000000000000E-01 -6.0923238583336E-01  1.5938385121950E+00
64  6.3000000000000E-01 -6.6826971795895E-01  1.6043281015900E+00
65  6.4000000000000E-01 -7.2036663012585E-01  1.6112610018947E+00
66  6.5000000000000E-01 -7.6542094985946E-01  1.6145722269360E+00
67  6.6000000000000E-01 -8.0338148604040E-01  1.6142325200451E+00
68  6.7000000000000E-01 -8.3424706387939E-01  1.6102485933792E+00
69  6.8000000000000E-01 -8.5806562847864E-01  1.6026624774911E+00
70  6.9000000000000E-01 -8.7493341021635E-01  1.5915500049147E+00
71  7.0000000000000E-01 -8.8499412255275E-01  1.5770184813524E+00
72  7.1000000000000E-01 -8.8843814208037E-01  1.5592036261295E+00
73  7.2000000000000E-01 -8.8550160278170E-01  1.5382658888335E+00
74  7.3000000000000E-01 -8.7646532245314E-01  1.5143862705338E+00
75  7.4000000000000E-01 -8.6165346989322E-01  1.4877617948270E+00
76  7.5000000000000E-01 -8.4143187733806E-01  1.4586007855061E+00
77  7.6000000000000E-01 -8.1620590414206E-01  1.4271181134356E+00
78  7.7000000000000E-01 -7.8641776499898E-01  1.3935305749499E+00
79  7.8000000000000E-01 -7.5254324897994E-01  1.3580525577513E+00
80  7.9000000000000E-01 -7.1508777398637E-01  1.3208921380591E+00
81  8.0000000000000E-01 -6.7458174429209E-01  1.2822477350613E+00
82  8.1000000000000E-01 -6.3157520587083E-01  1.2423054261976E+00
83  8.2000000000000E-01 -5.8663182416913E-01  1.2012370002695E+00
84  8.3000000000000E-01 -5.4032224072211E-01  1.1591987958335E+00
85  8.4000000000000E-01 -4.9321689723411E-01  1.1163313409116E+00
86  8.5000000000000E-01 -4.4587844709429E-01  1.0727597779615E+00
87  8.6000000000000E-01 -3.9885390338212E-01  1.0285950265538E+00
88  8.7000000000000E-01 -3.5266669787801E-01  9.8393560657902E-01
89  8.8000000000000E-01 -3.0780884614647E-01  9.3887001826641E-01
90  8.9000000000000E-01 -2.6473342824508E-01  8.9347955298814E-01
91  9.0000000000000E-01 -2.2384760204367E-01  8.4784139175687E-01
92  9.1000000000000E-01 -1.8550636573462E-01  8.0203183734522E-01
93  9.2000000000000E-01 -1.5000727733686E-01  7.5612952172444E-01
94  9.3000000000000E-01 -1.1758632156034E-01  7.1021843347304E-01
95  9.4000000000000E-01 -8.8415088310438E-02  6.6439062014933E-01
96  9.5000000000000E-01 -6.2599392630522E-02  6.1874843833169E-01
97  9.6000000000000E-01 -4.0179423570651E-02  5.7340624883184E-01
98  9.7000000000000E-01 -2.1131460122137E-02  5.2849148599137E-01
99  9.8000000000000E-01 -5.3711370108278E-03  4.8414506727731E-01
100  9.9000000000000E-01  7.2418169504360E-03  4.4052115169660E-01
101  1.0000000000000E+00  1.6897508736621E-02  3.9778630184787E-01
102  1.0100000000000E+00  2.3828685313453E-02  3.5611815352344E-01
103  1.0200000000000E+00  2.8302683833233E-02  3.1570374742877E-01
104  1.0300000000000E+00  3.0612863759966E-02  2.7673772857244E-01
105  1.0400000000000E+00  3.1069918201298E-02  2.3942066887527E-01
106  1.0500000000000E+00  2.9993518630807E-02  2.0395781630150E-01
107  1.0600000000000E+00  2.7704798419913E-02  1.7055861829184E-01
108  1.0700000000000E+00  2.4520224818301E-02  1.3943740731410E-01
109  1.0800000000000E+00  2.0747462883922E-02  1.1081568342770E-01
110  1.0900000000000E+00  1.6683710573839E-02  8.4926347871472E-02
111  1.1000000000000E+00  1.2614791415003E-02  6.2018759617493E-02
112  1.1100000000000E+00  8.7685124084986E-03  4.2329358168954E-02
113  1.1200000000000E+00  5.4167996123761E-03  2.6140539512871E-02
114  1.1300000000000E+00  2.7920863391529E-03  1.3706546502520E-02
115  1.1400000000000E+00  1.0238872154794E-03  5.2069904071363E-03
116  1.1500000000000E+00  1.3902640205564E-04  7.4738785008243E-04
117  1.1600000000000E+00 -7.1597973387946E-06 -4.0446494973098E-05
118  1.1700000000000E+00 -1.4561993489713E-08 -7.7926259632812E-08
119  1.18 -0. -0.
120  1.19  0.  0.
121  1.20  0.  0.
122  1.21  0.  0.
123  1.22  0.  0.
124  1.23  0.  0.
125  1.24  0.  0.
126  1.25  0.  0.
127  1.26  0.  0.
128  1.27  0.  0.
129  1.28  0.  0.
130  1.29  0.  0.
131  1.30  0.  0.
132  1.31  0.  0.
133  1.32  0.  0.
134  1.33  0.  0.
135  1.34  0.  0.
136  1.35  0.  0.
137  1.36  0.  0.
138  1.37  0.  0.
139  1.38  0.  0.
140  1.39  0.  0.
141  1.40  0.  0.
142  1.41  0.  0.
143  1.42  0.  0.
144  1.43  0.  0.
145  1.44  0.  0.
146  1.45  0.  0.
147  1.46  0.  0.
148  1.47  0.  0.
149  1.48  0.  0.
150  1.49  0.  0.
151  1.50  0.  0.
152  1.51  0.  0.
153  1.52  0.  0.
154  1.53  0.  0.
155  1.54  0.  0.
156  1.55  0.  0.
157  1.56  0.  0.
158  1.57  0.  0.
159  1.58  0.  0.
160  1.59  0.  0.
161  1.60  0.  0.
162  1.61  0.  0.
163  1.62  0.  0.
164  1.63  0.  0.
165  1.64  0.  0.