No    ONCVPSP-4.0.1  r_core=   1.15610   1.15610   1.15610   1.15610
102.0000     42.0000      230613    zatom,zion,pspd
8      11   3     4   600     0    pspcod,pspxc,lmax,lloc,mmax,r2well
5.99000000  5.00000000  0.00000000    rchrg fchrg qchrg
3     4     3     2    nproj
3     1           extension_switch
4     4     3    nprojso
0                         2.3011499650129E+01  2.5575970074133E+00 -1.6725732157603E+00
1  0.0000000000000E+00 -1.5904667138855E-08  5.5217099836913E-08 -8.3641171766402E-10
2  1.0000000000000E-02  1.6402786260187E-01 -4.8540952815695E-02  4.0609805778529E-02
3  2.0000000000000E-02  3.2688474387496E-01 -9.5978083175908E-02  8.1077859060999E-02
4  3.0000000000000E-02  4.8741081813205E-01 -1.4122743627761E-01  1.2126374922516E-01
5  4.0000000000000E-02  6.4446840140153E-01 -1.8324430957155E-01  1.6102973608952E-01
6  5.0000000000000E-02  7.9695260269618E-01 -2.2104168634166E-01  2.0024205210102E-01
7  6.0000000000000E-02  9.4380148375334E-01 -2.5370727993119E-01  2.3877216552881E-01
8  7.0000000000000E-02  1.0840055829393E+00 -2.8041879345829E-01  2.7649799271181E-01
9  8.0000000000000E-02  1.2166166749152E+00 -3.0045705508084E-01  3.1330504824373E-01
10  9.0000000000000E-02  1.3407556565290E+00 -3.1321675422666E-01  3.4908752295412E-01
11  1.0000000000000E-01  1.4556194706025E+00 -3.1821457744988E-01  3.8374928061488E-01
12  1.1000000000000E-01  1.5604870021321E+00 -3.1509462118958E-01  4.1720476542384E-01
13  1.2000000000000E-01  1.6547239051733E+00 -3.0363104000117E-01  4.4937981344442E-01
14  1.3000000000000E-01  1.7377863425605E+00 -2.8372797002891E-01  4.8021236226836E-01
15  1.4000000000000E-01  1.8092236438769E+00 -2.5541684583050E-01  5.0965305417609E-01
16  1.5000000000000E-01  1.8686799089967E+00 -2.1885130151480E-01  5.3766572896342E-01
17  1.6000000000000E-01  1.9158946044121E+00 -1.7429991207145E-01  5.6422780335582E-01
18  1.7000000000000E-01  1.9507022168449E+00 -1.2213708562214E-01  5.8933053452806E-01
19  1.8000000000000E-01  1.9730310428376E+00 -6.2832460340513E-02  6.1297916568124E-01
20  1.9000000000000E-01  1.9829012037709E+00  3.0608103723511E-03  6.3519295190781E-01
21  2.0000000000000E-01  1.9804219828169E+00  7.4918485052911E-02  6.5600506471670E-01
22  2.1000000000000E-01  1.9657885836321E+00  1.5205797284164E-01  6.7546237362441E-01
23  2.2000000000000E-01  1.9392784101654E+00  2.3375099557950E-01  6.9362510318328E-01
24  2.3000000000000E-01  1.9012469629924E+00  3.1923581155455E-01  7.1056636376452E-01
25  2.4000000000000E-01  1.8521234404102E+00  4.0772867776245E-01  7.2637155439419E-01
26  2.5000000000000E-01  1.7924061225793E+00  4.9843427692854E-01  7.4113763601443E-01
27  2.6000000000000E-01  1.7226576048091E+00  5.9055489366818E-01  7.5497227376917E-01
28  2.7000000000000E-01  1.6434999322833E+00  6.8329818873524E-01  7.6799284735009E-01
29  2.8000000000000E-01  1.5556096737767E+00  7.7588348878477E-01  7.8032532913603E-01
30  2.9000000000000E-01  1.4597129569301E+00  8.6754657881346E-01  7.9210303086144E-01
31  3.0000000000000E-01  1.3565804731415E+00  9.5754305271977E-01  8.0346522088768E-01
32  3.1000000000000E-01  1.2470224467661E+00  1.0451503416331E+00  8.1455561584243E-01
33  3.2000000000000E-01  1.1318835517389E+00  1.1296685973180E+00  8.2552075244009E-01
34  3.3000000000000E-01  1.0120377494893E+00  1.2104206568462E+00  8.3650824768157E-01
35  3.4000000000000E-01  8.8838301556036E-01  1.2867513529644E+00  8.4766495832366E-01
36  3.5000000000000E-01  7.6183591902588E-01  1.3580264606906E+00  8.5913505345019E-01
37  3.6000000000000E-01  6.3332601881349E-01  1.4236315836223E+00  8.7105801710152E-01
38  3.7000000000000E-01  5.0379004447076E-01  1.4829712827066E+00  8.8356660113708E-01
39  3.8000000000000E-01  3.7416583567795E-01  1.5354687358154E+00  8.9678475171660E-01
40  3.9000000000000E-01  2.4538602469867E-01  1.5805661888868E+00  9.1082553587843E-01
41  4.0000000000000E-01  1.1837145862269E-01  1.6177264196597E+00  9.2578909754763E-01
42  4.1000000000000E-01 -5.9756267826078E-03  1.6464353846287E+00  9.4176067479984E-01
43  4.2000000000000E-01 -1.2677865310950E-01  1.6662061606744E+00  9.5880871221732E-01
44  4.3000000000000E-01 -2.4319391899073E-01  1.6765842271230E+00  9.7698310358654E-01
45  4.4000000000000E-01 -3.5441792910119E-01  1.6771540642746E+00  9.9631360089442E-01
46  4.5000000000000E-01 -4.5969475050840E-01  1.6675469733804E+00  1.0168084254956E+00
47  4.6000000000000E-01 -5.5832329794266E-01  1.6474499534287E+00  1.0384531163718E+00
48  4.7000000000000E-01 -6.4966443503638E-01  1.6166154046238E+00  1.0612096485426E+00
49  4.8000000000000E-01 -7.3314776669033E-01  1.5748713697562E+00  1.0850158518850E+00
50  4.9000000000000E-01 -8.0827798907786E-01  1.5221319751345E+00  1.1097851568978E+00
51  5.0000000000000E-01 -8.7464065890975E-01  1.4584076944837E+00  1.1354066893206E+00
52  5.1000000000000E-01 -9.3190724284605E-01  1.3838150338988E+00  1.1617457300772E+00
53  5.2000000000000E-01 -9.7983931161037E-01  1.2985852248395E+00  1.1886445508308E+00
54  5.3000000000000E-01 -1.0182917515415E+00  1.2030715160125E+00  1.2159236286553E+00
55  5.4000000000000E-01 -1.0472148789541E+00  1.0977546740329E+00  1.2433832360776E+00
56  5.5000000000000E-01 -1.0666553595671E+00  9.8324633669174E-01  1.2708053952050E+00
57  5.6000000000000E-01 -1.0767558560341E+00  8.6028991061678E-01  1.2979561770043E+00
58  5.7000000000000E-01 -1.0777533507722E+00  7.2975876577201E-01  1.3245883192363E+00
59  5.8000000000000E-01 -1.0699761182045E+00  5.9265155076975E-01  1.3504441292774E+00
60  5.9000000000000E-01 -1.0538393494730E+00  4.5008453317015E-01  1.3752586312743E+00
61  6.0000000000000E-01 -1.0298394628243E+00  3.0328095527366E-01  1.3987629109784E+00
62  6.1000000000000E-01 -9.9854716334374E-01  1.5355748559804E-01  1.4206876063604E+00
63  6.2000000000000E-01 -9.6059934561322E-01  2.3079363526543E-03  1.4407664878891E+00
64  6.3000000000000E-01 -9.1668996129803E-01 -1.4901549519009E-01  1.4587400692916E+00
65  6.4000000000000E-01 -8.6755999975326E-01 -2.9892312137959E-01  1.4743591878123E+00
66  6.5000000000000E-01 -8.1398675268184E-01 -4.4591038094077E-01  1.4873884925184E+00
67  6.6000000000000E-01 -7.5677255295125E-01 -5.8848170057049E-01  1.4976097801074E+00
68  6.7000000000000E-01 -6.9673319227788E-01 -7.2517507380181E-01  1.5048251199440E+00
69  6.8000000000000E-01 -6.3468623214190E-01 -8.5458679386137E-01  1.5088597136615E+00
70  6.9000000000000E-01 -5.7143942667332E-01 -9.7539575750362E-01  1.5095644395215E+00
71  7.0000000000000E-01 -5.0777947518032E-01 -1.0863867538150E+00  1.5068180377294E+00
72  7.1000000000000E-01 -4.4446131546725E-01 -1.1864721660017E+00  1.5005288999021E+00
73  7.2000000000000E-01 -3.8219815726927E-01 -1.2747115449245E+00  1.4906364337129E+00
74  7.3000000000000E-01 -3.2165243832654E-01 -1.3503285598088E+00  1.4771119821908E+00
75  7.4000000000000E-01 -2.6342786429398E-01 -1.4127248928256E+00  1.4599592860290E+00
76  7.5000000000000E-01 -2.0806266843025E-01 -1.4614907183214E+00  1.4392144863217E+00
77  7.6000000000000E-01 -1.5602419853621E-01 -1.4964114922082E+00  1.4149456741847E+00
78  7.7000000000000E-01 -1.0770490771495E-01 -1.5174708699029E+00  1.3872520024860E+00
79  7.8000000000000E-01 -6.3419793069039E-02 -1.5248496694648E+00  1.3562623832147E+00
80  7.9000000000000E-01 -2.3405293332846E-02 -1.5189208973326E+00  1.3221338016376E+00
81  8.0000000000000E-01  1.2180376430454E-02 -1.5002409543189E+00  1.2850492851570E+00
82  8.1000000000000E-01  4.3255506663094E-02 -1.4695372363454E+00  1.2452155705428E+00
83  8.2000000000000E-01  6.9811875008471E-02 -1.4276924349694E+00  1.2028605178302E+00
84  8.3000000000000E-01  9.1910538162470E-02 -1.3757259244394E+00  1.1582303225729E+00
85  8.4000000000000E-01  1.0967656768013E-01 -1.3147726924930E+00  1.1115865802573E+00
86  8.5000000000000E-01  1.2329288300614E-01 -1.2460603293948E+00  1.0632032574951E+00
87  8.6000000000000E-01  1.3299334997494E-01 -1.1708846322160E+00  1.0133636241440E+00
88  8.7000000000000E-01  1.3905532319559E-01 -1.0905844079652E+00  9.6235719879144E-01
89  8.8000000000000E-01  1.4179181592098E-01 -1.0065160692313E+00  9.1047675717511E-01
90  8.9000000000000E-01  1.4154348116664E-01 -9.2002860933117E-01  8.5801544919430E-01
91  9.0000000000000E-01  1.3867058310201E-01 -8.3243952087820E-01  8.0526406533790E-01
92  9.1000000000000E-01  1.3354512832721E-01 -7.4501218299699E-01  7.5250848775672E-01
93  9.2000000000000E-01  1.2654331293860E-01 -6.5893518930856E-01  7.0002735501288E-01
94  9.3000000000000E-01  1.1803842375124E-01 -5.7530402291102E-01  6.4808996291806E-01
95  9.4000000000000E-01  1.0839431126103E-01 -4.9510540784352E-01  5.9695441700601E-01
96  9.5000000000000E-01  9.7959528526487E-02 -4.1920458112148E-01  5.4686604524496E-01
97  9.6000000000000E-01  8.7062204843127E-02 -3.4833563785224E-01  4.9805607275695E-01
98  9.7000000000000E-01  7.6005696589343E-02 -2.8309500668144E-01  4.5074055372829E-01
99  9.8000000000000E-01  6.5065030696980E-02 -2.2393801654495E-01  4.0511954951415E-01
100  9.9000000000000E-01  5.4484129574369E-02 -1.7117842099846E-01  3.6137653628755E-01
101  1.0000000000000E+00  4.4473780682200E-02 -1.2499065575284E-01  3.1967802056167E-01
102  1.0100000000000E+00  3.5210290011893E-02 -8.5414520890473E-02  2.8017333661408E-01
103  1.0200000000000E+00  2.6834737038396E-02 -5.2361903721887E-02  2.4299459632190E-01
104  1.0300000000000E+00  1.9452729817734E-02 -2.5625093191002E-02  2.0825675921701E-01
105  1.0400000000000E+00  1.3134543246486E-02 -4.8861838676656E-03  1.7605778871378E-01
106  1.0500000000000E+00  7.9155114227967E-03  1.0272971928812E-02  1.4647885944380E-01
107  1.0600000000000E+00  3.7965367790389E-03  2.0360830584313E-02  1.1958458043396E-01
108  1.0700000000000E+00  7.4457437239363E-04  2.5966819304333E-02  9.5423199454235E-02
109  1.0800000000000E+00 -1.3070385984909E-03  2.7753127881982E-02  7.4026770903792E-02
110  1.0900000000000E+00 -2.4586352680904E-03  2.6448478563193E-02  5.5411131780977E-02
111  1.1000000000000E+00 -2.8463369865901E-03  2.2849264755943E-02  3.9573726978559E-02
112  1.1100000000000E+00 -2.6747005503025E-03  1.7922127177754E-02  2.6448094165518E-02
113  1.1200000000000E+00 -2.1243102809673E-03  1.2495072708573E-02  1.6009994770171E-02
114  1.1300000000000E+00 -1.3729042666877E-03  7.2988678620554E-03  8.2402978602992E-03
115  1.1400000000000E+00 -6.2542666334663E-04  3.0612728007777E-03  3.0807144883015E-03
116  1.1500000000000E+00 -1.0637507719959E-04  4.8531137830930E-04  4.3937384211688E-04
117  1.1600000000000E+00  6.3656739992926E-06 -2.7812441522097E-05 -2.3343345539442E-05
118  1.1700000000000E+00 -8.9523282906025E-09  3.9794292141800E-08  3.4391577639433E-08
119  1.18  0.  0.  0.
120  1.19  0.  0.  0.
121  1.20  0.  0.  0.
122  1.21  0.  0.  0.
123  1.22  0.  0.  0.
124  1.23  0.  0.  0.
125  1.24  0.  0.  0.
126  1.25  0.  0.  0.
127  1.26  0.  0.  0.
128  1.27  0.  0.  0.
129  1.28  0.  0.  0.
130  1.29  0.  0.  0.
131  1.30  0.  0.  0.
132  1.31  0.  0.  0.
133  1.32  0.  0.  0.
134  1.33  0.  0.  0.
135  1.34  0.  0.  0.
136  1.35  0.  0.  0.
137  1.36  0.  0.  0.
138  1.37  0.  0.  0.
139  1.38  0.  0.  0.
140  1.39  0.  0.  0.
141  1.40  0.  0.  0.
142  1.41  0.  0.  0.
143  1.42  0.  0.  0.
144  1.43  0.  0.  0.
145  1.44  0.  0.  0.
146  1.45  0.  0.  0.
147  1.46  0.  0.  0.
148  1.47  0.  0.  0.
149  1.48  0.  0.  0.
150  1.49  0.  0.  0.
151  1.50  0.  0.  0.
152  1.51  0.  0.  0.
153  1.52  0.  0.  0.
154  1.53  0.  0.  0.
155  1.54  0.  0.  0.
156  1.55  0.  0.  0.
157  1.56  0.  0.  0.
158  1.57  0.  0.  0.
159  1.58  0.  0.  0.
160  1.59  0.  0.  0.
161  1.60  0.  0.  0.
162  1.61  0.  0.  0.
163  1.62  0.  0.  0.
164  1.63  0.  0.  0.
165  1.64  0.  0.  0.
166  1.65  0.  0.  0.
167  1.66  0.  0.  0.
168  1.67  0.  0.  0.
169  1.68  0.  0.  0.
170  1.69  0.  0.  0.
171  1.70  0.  0.  0.
172  1.71  0.  0.  0.
173  1.72  0.  0.  0.
174  1.73  0.  0.  0.
175  1.74  0.  0.  0.
176  1.75  0.  0.  0.
177  1.76  0.  0.  0.
178  1.77  0.  0.  0.
179  1.78  0.  0.  0.
180  1.79  0.  0.  0.
181  1.80  0.  0.  0.
182  1.81  0.  0.  0.
183  1.82  0.  0.  0.
184  1.83  0.  0.  0.
185  1.84  0.  0.  0.
186  1.85  0.  0.  0.
187  1.86  0.  0.  0.
188  1.87  0.  0.  0.
189  1.88  0.  0.  0.
190  1.89  0.  0.  0.
191  1.90  0.  0.  0.
192  1.91  0.  0.  0.
193  1.92  0.  0.  0.
194  1.93  0.  0.  0.
195  1.94  0.  0.  0.
196  1.95  0.  0.  0.
197  1.96  0.  0.  0.
198  1.97  0.  0.  0.
199  1.98  0.  0.  0.
200  1.99  0.  0.  0.
201  2.00  0.  0.  0.
202  2.01  0.  0.  0.
203  2.02  0.  0.  0.
204  2.03  0.  0.  0.
205  2.04  0.  0.  0.
206  2.05  0.  0.  0.
207  2.06  0.  0.  0.
208  2.07  0.  0.  0.
209  2.08  0.  0.  0.
210  2.09  0.  0.  0.
211  2.10  0.  0.  0.
212  2.11  0.  0.  0.
213  2.12  0.  0.  0.
214  2.13  0.  0.  0.
215  2.14  0.  0.  0.
216  2.15  0.  0.  0.
217  2.16  0.  0.  0.
218  2.17  0.  0.  0.
219  2.18  0.  0.  0.
220  2.19  0.  0.  0.
221  2.20  0.  0.  0.
222  2.21  0.  0.  0.
223  2.22  0.  0.  0.
224  2.23  0.  0.  0.
225  2.24  0.  0.  0.
226  2.25  0.  0.  0.
227  2.26  0.  0.  0.
228  2.27  0.  0.  0.
229  2.28  0.  0.  0.
230  2.29  0.  0.  0.
231  2.30  0.  0.  0.
232  2.31  0.  0.  0.
233  2.32  0.  0.  0.
234  2.33  0.  0.  0.
235  2.34  0.  0.  0.
236  2.35  0.  0.  0.
237  2.36  0.  0.  0.
238  2.37  0.  0.  0.
239  2.38  0.  0.  0.
240  2.39  0.  0.  0.
241  2.40  0.  0.  0.
242  2.41  0.  0.  0.
243  2.42  0.  0.  0.
244  2.43  0.  0.  0.
245  2.44  0.  0.  0.
246  2.45  0.  0.  0.
247  2.46  0.  0.  0.
248  2.47  0.  0.  0.
249  2.48  0.  0.  0.
250  2.49  0.  0.  0.
251  2.50  0.  0.  0.
252  2.51  0.  0.  0.
253  2.52  0.  0.  0.
254  2.53  0.  0.  0.
255  2.54  0.  0.  0.
256  2.55  0.  0.  0.
257  2.56  0.  0.  0.
258  2.57  0.  0.  0.
259  2.58  0.  0.  0.
260  2.59  0.  0.  0.
261  2.60  0.  0.  0.
262  2.61  0.  0.  0.
263  2.62  0.  0.  0.
264  2.63  0.  0.  0.
265  2.64  0.  0.  0.
266  2.65  0.  0.  0.
267  2.66  0.  0.  0.
268  2.67  0.  0.  0.
269  2.68  0.  0.  0.
270  2.69  0.  0.  0.
271  2.70  0.  0.  0.
272  2.71  0.  0.  0.
273  2.72  0.  0.  0.
274  2.73  0.  0.  0.
275  2.74  0.  0.  0.
276  2.75  0.  0.  0.
277  2.76  0.  0.  0.
278  2.77  0.  0.  0.
279  2.78  0.  0.  0.
280  2.79  0.  0.  0.
281  2.80  0.  0.  0.
282  2.81  0.  0.  0.
283  2.82  0.  0.  0.
284  2.83  0.  0.  0.
285  2.84  0.  0.  0.
286  2.85  0.  0.  0.
287  2.86  0.  0.  0.
288  2.87  0.  0.  0.
289  2.88  0.  0.  0.
290  2.89  0.  0.  0.
291  2.90  0.  0.  0.
292  2.91  0.  0.  0.
293  2.92  0.  0.  0.
294  2.93  0.  0.  0.
295  2.94  0.  0.  0.
296  2.95  0.  0.  0.
297  2.96  0.  0.  0.
298  2.97  0.  0.  0.
299  2.98  0.  0.  0.
300  2.99  0.  0.  0.
301  3.00  0.  0.  0.
302  3.01  0.  0.  0.
303  3.02  0.  0.  0.
304  3.03  0.  0.  0.
305  3.04  0.  0.  0.
306  3.05  0.  0.  0.
307  3.06  0.  0.  0.
308  3.07  0.  0.  0.
309  3.08  0.  0.  0.
310  3.09  0.  0.  0.
311  3.10  0.  0.  0.
312  3.11  0.  0.  0.
313  3.12  0.  0.  0.
314  3.13  0.  0.  0.
315  3.14  0.  0.  0.
316  3.15  0.  0.  0.
317  3.16  0.  0.  0.
318  3.17  0.  0.  0.
319  3.18  0.  0.  0.
320  3.19  0.  0.  0.
321  3.20  0.  0.  0.
322  3.21  0.  0.  0.
323  3.22  0.  0.  0.
324  3.23  0.  0.  0.
325  3.24  0.  0.  0.
326  3.25  0.  0.  0.
327  3.26  0.  0.  0.
328  3.27  0.  0.  0.
329  3.28  0.  0.  0.
330  3.29  0.  0.  0.
331  3.30  0.  0.  0.
332  3.31  0.  0.  0.
333  3.32  0.  0.  0.
334  3.33  0.  0.  0.
335  3.34  0.  0.  0.
336  3.35  0.  0.  0.
337  3.36  0.  0.  0.
338  3.37  0.  0.  0.
339  3.38  0.  0.  0.
340  3.39  0.  0.  0.
341  3.40  0.  0.  0.
342  3.41  0.  0.  0.
343  3.42  0.  0.  0.
344  3.43  0.  0.  0.
345  3.44  0.  0.  0.
346  3.45  0.  0.  0.
347  3.46  0.  0.  0.
348  3.47  0.  0.  0.
349  3.48  0.  0.  0.
350  3.49  0.  0.  0.
351  3.50  0.  0.  0.
352  3.51  0.  0.  0.
353  3.52  0.  0.  0.
354  3.53  0.  0.  0.
355  3.54  0.  0.  0.
356  3.55  0.  0.  0.
357  3.56  0.  0.  0.
358  3.57  0.  0.  0.
359  3.58  0.  0.  0.
360  3.59  0.  0.  0.
361  3.60  0.  0.  0.
362  3.61  0.  0.  0.
363  3.62  0.  0.  0.
364  3.63  0.  0.  0.
365  3.64  0.  0.  0.
366  3.65  0.  0.  0.
367  3.66  0.  0.  0.
368  3.67  0.  0.  0.
369  3.68  0.  0.  0.
370  3.69  0.  0.  0.
371  3.70  0.  0.  0.
372  3.71  0.  0.  0.
373  3.72  0.  0.  0.
374  3.73  0.  0.  0.
375  3.74  0.  0.  0.
376  3.75  0.  0.  0.
377  3.76  0.  0.  0.
378  3.77  0.  0.  0.
379  3.78  0.  0.  0.
380  3.79  0.  0.  0.
381  3.80  0.  0.  0.
382  3.81  0.  0.  0.
383  3.82  0.  0.  0.
384  3.83  0.  0.  0.
385  3.84  0.  0.  0.
386  3.85  0.  0.  0.
387  3.86  0.  0.  0.
388  3.87  0.  0.  0.
389  3.88  0.  0.  0.
390  3.89  0.  0.  0.
391  3.90  0.  0.  0.
392  3.91  0.  0.  0.
393  3.92  0.  0.  0.
394  3.93  0.  0.  0.
395  3.94  0.  0.  0.
396  3.95  0.  0.  0.
397  3.96  0.  0.  0.
398  3.97  0.  0.  0.
399  3.98  0.  0.  0.
400  3.99  0.  0.  0.
401  4.00  0.  0.  0.
402  4.01  0.  0.  0.
403  4.02  0.  0.  0.
404  4.03  0.  0.  0.
405  4.04  0.  0.  0.
406  4.05  0.  0.  0.
407  4.06  0.  0.  0.
408  4.07  0.  0.  0.
409  4.08  0.  0.  0.
410  4.09  0.  0.  0.
411  4.10  0.  0.  0.
412  4.11  0.  0.  0.
413  4.12  0.  0.  0.
414  4.13  0.  0.  0.
415  4.14  0.  0.  0.
416  4.15  0.  0.  0.
417  4.16  0.  0.  0.
418  4.17  0.  0.  0.
419  4.18  0.  0.  0.
420  4.19  0.  0.  0.
421  4.20  0.  0.  0.
422  4.21  0.  0.  0.
423  4.22  0.  0.  0.
424  4.23  0.  0.  0.
425  4.24  0.  0.  0.
426  4.25  0.  0.  0.
427  4.26  0.  0.  0.
428  4.27  0.  0.  0.
429  4.28  0.  0.  0.
430  4.29  0.  0.  0.
431  4.30  0.  0.  0.
432  4.31  0.  0.  0.
433  4.32  0.  0.  0.
434  4.33  0.  0.  0.
435  4.34  0.  0.  0.
436  4.35  0.  0.  0.
437  4.36  0.  0.  0.
438  4.37  0.  0.  0.
439  4.38  0.  0.  0.
440  4.39  0.  0.  0.
441  4.40  0.  0.  0.
442  4.41  0.  0.  0.
443  4.42  0.  0.  0.
444  4.43  0.  0.  0.
445  4.44  0.  0.  0.
446  4.45  0.  0.  0.
447  4.46  0.  0.  0.
448  4.47  0.  0.  0.
449  4.48  0.  0.  0.
450  4.49  0.  0.  0.
451  4.50  0.  0.  0.
452  4.51  0.  0.  0.
453  4.52  0.  0.  0.
454  4.53  0.  0.  0.
455  4.54  0.  0.  0.
456  4.55  0.  0.  0.
457  4.56  0.  0.  0.
458  4.57  0.  0.  0.
459  4.58  0.  0.  0.
460  4.59  0.  0.  0.
461  4.60  0.  0.  0.
462  4.61  0.  0.  0.
463  4.62  0.  0.  0.
464  4.63  0.  0.  0.
465  4.64  0.  0.  0.
466  4.65  0.  0.  0.
467  4.66  0.  0.  0.
468  4.67  0.  0.  0.
469  4.68  0.  0.  0.
470  4.69  0.  0.  0.
471  4.70  0.  0.  0.
472  4.71  0.  0.  0.
473  4.72  0.  0.  0.
474  4.73  0.  0.  0.
475  4.74  0.  0.  0.
476  4.75  0.  0.  0.
477  4.76  0.  0.  0.
478  4.77  0.  0.  0.
479  4.78  0.  0.  0.
480  4.79  0.  0.  0.
481  4.80  0.  0.  0.
482  4.81  0.  0.  0.
483  4.82  0.  0.  0.
484  4.83  0.  0.  0.
485  4.84  0.  0.  0.
486  4.85  0.  0.  0.
487  4.86  0.  0.  0.
488  4.87  0.  0.  0.
489  4.88  0.  0.  0.
490  4.89  0.  0.  0.
491  4.90  0.  0.  0.
492  4.91  0.  0.  0.
493  4.92  0.  0.  0.
494  4.93  0.  0.  0.
495  4.94  0.  0.  0.
496  4.95  0.  0.  0.
497  4.96  0.  0.  0.
498  4.97  0.  0.  0.
499  4.98  0.  0.  0.
500  4.99  0.  0.  0.
501  5.00  0.  0.  0.
502  5.01  0.  0.  0.
503  5.02  0.  0.  0.
504  5.03  0.  0.  0.
505  5.04  0.  0.  0.
506  5.05  0.  0.  0.
507  5.06  0.  0.  0.
508  5.07  0.  0.  0.
509  5.08  0.  0.  0.
510  5.09  0.  0.  0.
511  5.10  0.  0.  0.
512  5.11  0.  0.  0.
513  5.12  0.  0.  0.
514  5.13  0.  0.  0.
515  5.14  0.  0.  0.
516  5.15  0.  0.  0.
517  5.16  0.  0.  0.
518  5.17  0.  0.  0.
519  5.18  0.  0.  0.
520  5.19  0.  0.  0.
521  5.20  0.  0.  0.
522  5.21  0.  0.  0.
523  5.22  0.  0.  0.
524  5.23  0.  0.  0.
525  5.24  0.  0.  0.
526  5.25  0.  0.  0.
527  5.26  0.  0.  0.
528  5.27  0.  0.  0.
529  5.28  0.  0.  0.
530  5.29  0.  0.  0.
531  5.30  0.  0.  0.
532  5.31  0.  0.  0.
533  5.32  0.  0.  0.
534  5.33  0.  0.  0.
535  5.34  0.  0.  0.
536  5.35  0.  0.  0.
537  5.36  0.  0.  0.
538  5.37  0.  0.  0.
539  5.38  0.  0.  0.
540  5.39  0.  0.  0.
541  5.40  0.  0.  0.
542  5.41  0.  0.  0.
543  5.42  0.  0.  0.
544  5.43  0.  0.  0.
545  5.44  0.  0.  0.
546  5.45  0.  0.  0.
547  5.46  0.  0.  0.
548  5.47  0.  0.  0.
549  5.48  0.  0.  0.
550  5.49  0.  0.  0.
551  5.50  0.  0.  0.
552  5.51  0.  0.  0.
553  5.52  0.  0.  0.
554  5.53  0.  0.  0.
555  5.54  0.  0.  0.
556  5.55  0.  0.  0.
557  5.56  0.  0.  0.
558  5.57  0.  0.  0.
559  5.58  0.  0.  0.
560  5.59  0.  0.  0.
561  5.60  0.  0.  0.
562  5.61  0.  0.  0.
563  5.62  0.  0.  0.
564  5.63  0.  0.  0.
565  5.64  0.  0.  0.
566  5.65  0.  0.  0.
567  5.66  0.  0.  0.
568  5.67  0.  0.  0.
569  5.68  0.  0.  0.
570  5.69  0.  0.  0.
571  5.70  0.  0.  0.
572  5.71  0.  0.  0.
573  5.72  0.  0.  0.
574  5.73  0.  0.  0.
575  5.74  0.  0.  0.
576  5.75  0.  0.  0.
577  5.76  0.  0.  0.
578  5.77  0.  0.  0.
579  5.78  0.  0.  0.
580  5.79  0.  0.  0.
581  5.80  0.  0.  0.
582  5.81  0.  0.  0.
583  5.82  0.  0.  0.
584  5.83  0.  0.  0.
585  5.84  0.  0.  0.
586  5.85  0.  0.  0.
587  5.86  0.  0.  0.
588  5.87  0.  0.  0.
589  5.88  0.  0.  0.
590  5.89  0.  0.  0.
591  5.90  0.  0.  0.
592  5.91  0.  0.  0.
593  5.92  0.  0.  0.
594  5.93  0.  0.  0.
595  5.94  0.  0.  0.
596  5.95  0.  0.  0.
597  5.96  0.  0.  0.
598  5.97  0.  0.  0.
599  5.98  0.  0.  0.
600  5.99  0.  0.  0.
1                         6.2049856880410E+00 -1.7518707699204E+00  8.3418121285159E-02 -9.1754492661004E-03
1  0.0000000000000E+00 -6.3533817651340E-09 -7.4469603747462E-09  5.0948598506739E-08 -2.3166137486097E-07
2  1.0000000000000E-02  4.6688496308932E-03  5.7343099689789E-04  5.5532586045270E-03 -6.7278892905604E-03
3  2.0000000000000E-02  1.8633130966841E-02  2.2986681410822E-03  2.2108612295011E-02 -2.6729514440732E-02
4  3.0000000000000E-02  4.1766251983832E-02  5.1903802861510E-03  4.9354542855803E-02 -5.9463815847002E-02
5  4.0000000000000E-02  7.3857934124111E-02  9.2724752146809E-03  8.6777650830882E-02 -1.0404576772245E-01
6  5.0000000000000E-02  1.1461529513142E-01  1.4577306677952E-02  1.3367124877956E-01 -1.5927095109127E-01
7  6.0000000000000E-02  1.6366440492311E-01  2.1144598633365E-02  1.8914718753042E-01 -2.2364889953308E-01
8  7.0000000000000E-02  2.2055235137558E-01  2.9020119641930E-02  2.5215071551720E-01 -2.9544420311539E-01
9  8.0000000000000E-02  2.8474985925271E-01  3.8254147835147E-02  3.2147812033195E-01 -3.7272412429087E-01
10  9.0000000000000E-02  3.5565450896376E-01  4.8899772926256E-02  3.9579685515048E-01 -4.5341128878674E-01
11  1.0000000000000E-01  4.3259460200893E-01  6.1011086222274E-02  4.7366781148204E-01 -5.3533987078993E-01
12  1.1000000000000E-01  5.1483371660937E-01  7.4641312343168E-02  5.5356936448899E-01 -6.1631359958553E-01
13  1.2000000000000E-01  6.0157599002343E-01  8.9840937288024E-02  6.3392278850863E-01 -6.9416387698395E-01
14  1.3000000000000E-01  6.9197215348169E-01  1.0665588658408E-01  7.1311861886424E-01 -7.6680631229361E-01
15  1.4000000000000E-01  7.8512633174492E-01  1.2512580455814E-01  7.8954352191943E-01 -8.3229405328657E-01
16  1.5000000000000E-01  8.8010360236821E-01  1.4528248138957E-01  8.6160722880881E-01 -8.8886641474197E-01
17  1.6000000000000E-01  9.7593829035016E-01  1.6714846870825E-01  9.2776908943099E-01 -9.3499147617817E-01
18  1.7000000000000E-01  1.0716429525880E+00  1.9073591731220E-01  9.8656381203642E-01 -9.6940153115326E-01
19  1.8000000000000E-01  1.1662179841813E+00  2.1604566236610E-01  1.0366259698613E+00 -9.9112051451771E-01
20  1.9000000000000E-01  1.2586617559372E+00  2.4306657250830E-01  1.0767128793979E+00 -9.9948280263827E-01
21  2.0000000000000E-01  1.3479811702809E+00  2.7177516997027E-01  1.1057254845712E+00 -9.9414306548019E-01
22  2.1000000000000E-01  1.4332025020371E+00  3.0213551944078E-01  1.1227269167231E+00 -9.7507713867242E-01
23  2.2000000000000E-01  1.5133823720755E+00  3.3409937433299E-01  1.1269584411864E+00 -9.4257416831688E-01
24  2.3000000000000E-01  1.5876186863926E+00  3.6760656066604E-01  1.1178525465935E+00 -8.9722055160034E-01
25  2.4000000000000E-01  1.6550613615751E+00  4.0258557126364E-01  1.0950429820439E+00 -8.3987644307446E-01
26  2.5000000000000E-01  1.7149226503333E+00  4.3895433667195E-01  1.0583715989564E+00 -7.7164581154199E-01
27  2.6000000000000E-01  1.7664868784115E+00  4.7662113433548E-01  1.0078919079135E+00 -6.9384120877869E-01
28  2.7000000000000E-01  1.8091194069589E+00  5.1548559431579E-01  9.4386931511081E-01 -6.0794454322552E-01
29  2.8000000000000E-01  1.8422746425465E+00  5.5543975830577E-01  8.6677805720422E-01 -5.1556523535863E-01
30  2.9000000000000E-01  1.8655029303909E+00  5.9636914892946E-01  7.7729490646529E-01 -4.1839716449831E-01
31  3.0000000000000E-01  1.8784561847738E+00  6.3815380830398E-01  6.7628976932305E-01 -3.1817579904918E-01
32  3.1000000000000E-01  1.8808921337283E+00  6.8066926848831E-01  5.6481334973896E-01 -2.1663683509562E-01
33  3.2000000000000E-01  1.8726770822196E+00  7.2378742160471E-01  4.4408209367210E-01 -1.1547755528195E-01
34  3.3000000000000E-01  1.8537871285564E+00  7.6737726387960E-01  3.1546067144028E-01 -1.6321965971580E-02
35  3.4000000000000E-01  1.8243078017689E+00  8.1130549535452E-01  1.8044229048318E-01  7.9309417668749E-02
36  3.5000000000000E-01  1.7844321222264E+00  8.5543696525843E-01  4.0627161383142E-02  1.7002448404393E-01
37  3.6000000000000E-01  1.7344571227981E+00  8.9963496167852E-01 -1.0230053538991E-01  2.5457871337270E-01
38  3.7000000000000E-01  1.6747789023314E+00  9.4376135286515E-01 -2.4659681594965E-01  3.3188846190537E-01
39  3.8000000000000E-01  1.6058863160557E+00  9.8767659590062E-01 -3.9048281420928E-01  4.0103840302161E-01
40  3.9000000000000E-01  1.5283534376914E+00  1.0312396362019E+00 -5.3217007319980E-01  4.6128341652400E-01
41  4.0000000000000E-01  1.4428309546005E+00  1.0743077280877E+00 -6.6988582185830E-01  5.1204542843311E-01
42  4.1000000000000E-01  1.3500366794113E+00  1.1167362121263E+00 -8.0189785869335E-01  5.5290588693334E-01
43  4.2000000000000E-01  1.2507453784854E+00  1.1583782889473E+00 -9.2653867554699E-01  5.8359470871772E-01
44  4.3000000000000E-01  1.1457781288273E+00  1.1990848314538E+00 -1.0422284719189E+00  6.0397663811831E-01
45  4.4000000000000E-01  1.0359914202267E+00  1.2387042777892E+00 -1.1474967325814E+00  6.1403602502235E-01
46  4.5000000000000E-01  9.2226621841909E-01  1.2770826459338E+00 -1.2410020680065E+00  6.1386104437173E-01
47  4.6000000000000E-01  8.0549719792061E-01  1.3140637074466E+00 -1.3215500479155E+00  6.0362834963973E-01
48  4.7000000000000E-01  6.8658234020613E-01  1.3494893527238E+00 -1.3881087924563E+00  5.8358907660215E-01
49  4.8000000000000E-01  5.6641307454263E-01  1.3832001733667E+00 -1.4398221225148E+00  5.5405699538449E-01
50  4.9000000000000E-01  4.4586511571245E-01  1.4150362790778E+00 -1.4760201098265E+00  5.1539945332312E-01
51  5.0000000000000E-01  3.2579012590029E-01  1.4448383572145E+00 -1.4962269082546E+00  4.6803156536740E-01
52  5.1000000000000E-01  2.0700829813201E-01  1.4724489730622E+00 -1.5001657891835E+00  4.1241390061370E-01
53  5.2000000000000E-01  9.0301926907057E-02  1.4977140984176E+00 -1.4877613458382E+00  3.4905369214809E-01
54  5.3000000000000E-01 -2.3590000809528E-02  1.5204848455972E+00 -1.4591388728697E+00  2.7850937242279E-01
55  5.4000000000000E-01 -1.3397619312506E-01  1.5406193739047E+00 -1.4146209681679E+00  2.0139801786420E-01
56  5.5000000000000E-01 -2.4021644867789E-01  1.5579849263177E+00 -1.3547214430492E+00  1.1840508422391E-01
57  5.6000000000000E-01 -3.4172411728234E-01  1.5724599460578E+00 -1.2801366642054E+00  3.0295637684811E-02
58  5.7000000000000E-01 -4.3796770730267E-01  1.5839362161370E+00 -1.1917344856453E+00 -6.2073855613399E-02
59  5.8000000000000E-01 -5.2847174114488E-01  1.5923209602267E+00 -1.0905409608967E+00 -1.5774421992562E-01
60  5.9000000000000E-01 -6.1281697500571E-01  1.5975388405012E+00 -9.7772505460332E-01 -2.5564383238951E-01
61  6.0000000000000E-01 -6.9064010820633E-01  1.5995337876318E+00 -8.5458159803225E-01 -3.5458155303617E-01
62  6.1000000000000E-01 -7.6163311080970E-01  1.5982705999370E+00 -7.2251275463646E-01 -4.5324336820734E-01
63  6.2000000000000E-01 -8.2554229574974E-01  1.5937362528226E+00 -5.8300827947738E-01 -5.5019369147370E-01
64  6.3000000000000E-01 -8.8216725358849E-01  1.5859408660011E+00 -4.3762486982739E-01 -6.4388211457663E-01
65  6.4000000000000E-01 -9.3135975468952E-01  1.5749182843841E+00 -2.8796491352484E-01 -7.3265620417459E-01
66  6.5000000000000E-01 -9.7302270568615E-01  1.5607262387544E+00 -1.3565494655822E-01 -8.1478070489698E-01
67  6.6000000000000E-01 -1.0071092254496E+00  1.5434460640329E+00  1.7675868119335E-02 -8.8846324376107E-01
68  6.7000000000000E-01 -1.0336218813026E+00  1.5231819657741E+00  1.7041693238115E-01 -9.5188634527345E-01
69  6.8000000000000E-01 -1.0526121000709E+00  1.5000598390339E+00  3.2099677531444E-01 -1.0032452715273E+00
70  6.9000000000000E-01 -1.0641797418954E+00  1.4742256574939E+00  4.6790269854869E-01 -1.0407909090532E+00
71  7.0000000000000E-01 -1.0684727987413E+00  1.4458434642221E+00  6.0969923328530E-01 -1.0628766461320E+00
72  7.1000000000000E-01 -1.0656871554412E+00  1.4150930082235E+00  7.4504515806299E-01 -1.0680079325817E+00
73  7.2000000000000E-01 -1.0560663300140E+00  1.3821670825344E+00  8.7270885018347E-01 -1.0548929999254E+00
74  7.3000000000000E-01 -1.0399010929497E+00  1.3472686296088E+00  9.9158177093297E-01 -1.0224930534695E+00
75  7.4000000000000E-01 -1.0175288530055E+00  1.3106076877649E+00  1.1006899149255E+00 -9.7007013777812E-01
76  7.5000000000000E-01 -9.8933269052075E-01  1.2723982582008E+00  1.1992030866671E+00 -8.9723083008927E-01
77  7.6000000000000E-01 -9.5573991879455E-01  1.2328551753101E+00  1.2864419023616E+00 -8.0396393688706E-01
78  7.7000000000000E-01 -9.1722005991600E-01  1.1921910635894E+00  1.3618824515510E+00 -6.9067045924825E-01
79  7.8000000000000E-01 -8.7428213357319E-01  1.1506134622803E+00  1.4251585908855E+00 -5.5818425224562E-01