No    ONCVPSP-4.0.1  r_core=   1.15610   1.15610   1.15610   1.15610
102.0000     42.0000      220327    zatom,zion,pspd
8      11   3     4   600     0    pspcod,pspxc,lmax,lloc,mmax,r2well
5.99000000  5.00000000  0.00000000    rchrg fchrg qchrg
3     2     2     2     0    nproj
1     1           extension_switch
0                         2.2822668588808E+01  2.5280095661797E+00 -1.7323071815631E+00
1  0.0000000000000E+00 -1.5340062553548E-08  5.3385775300452E-08 -1.0212090062467E-09
2  1.0000000000000E-02  1.6420349395879E-01 -4.8311035919755E-02  4.1010068752915E-02
3  2.0000000000000E-02  3.2723161505171E-01 -9.5523442255174E-02  8.1879175257698E-02
4  3.0000000000000E-02  4.8792013679645E-01 -1.4055823562994E-01  1.2246772197729E-01
5  4.0000000000000E-02  6.4512695889673E-01 -1.8237525316569E-01  1.6263882599014E-01
6  5.0000000000000E-02  7.9774275805378E-01 -2.1999139750423E-01  2.0225963956504E-01
7  6.0000000000000E-02  9.4470115558218E-01 -2.5249752384946E-01  2.4120262743925E-01
8  7.0000000000000E-02  1.0849882595946E+00 -2.7907358204329E-01  2.7934678763780E-01
9  8.0000000000000E-02  1.2176514548600E+00 -2.9900168007570E-01  3.1657880369290E-01
10  9.0000000000000E-02  1.3418073316506E+00 -3.1167679865269E-01  3.5279411731892E-01
11  1.0000000000000E-01  1.4566486653777E+00 -3.1661495734808E-01  3.8789791192119E-01
12  1.1000000000000E-01  1.5614503809177E+00 -3.1345870903310E-01  4.2180599871539E-01
13  1.2000000000000E-01  1.6555744585339E+00 -3.0197991812612E-01  4.5444559865332E-01
14  1.3000000000000E-01  1.7384737614756E+00 -2.8207985706794E-01  4.8575601473870E-01
15  1.4000000000000E-01  1.8096947879609E+00 -2.5378673165307E-01  5.1568919062376E-01
16  1.5000000000000E-01  1.8688793716248E+00 -2.1725081688715E-01  5.4421015256020E-01
17  1.6000000000000E-01  1.9157653739954E+00 -1.7273744854712E-01  5.7129733280264E-01
18  1.7000000000000E-01  1.9501864295890E+00 -1.2061816951641E-01  5.9694277340353E-01
19  1.8000000000000E-01  1.9720708183182E+00 -6.1360372538611E-02  6.2115220998301E-01
20  1.9000000000000E-01  1.9814395507289E+00  4.4841890381345E-03  6.4394503550425E-01
21  2.0000000000000E-01  1.9784037588990E+00  7.6291634518053E-02  6.6535414434721E-01
22  2.1000000000000E-01  1.9631614895355E+00  1.5337854253304E-01  6.8542565707519E-01
23  2.2000000000000E-01  1.9359939959452E+00  2.3501451171486E-01  7.0421852626583E-01
24  2.3000000000000E-01  1.8972616222863E+00  3.2043434021446E-01  7.2180402367672E-01
25  2.4000000000000E-01  1.8473993671353E+00  4.0884950522227E-01  7.3826510889008E-01
26  2.5000000000000E-01  1.7869122043301E+00  4.9945867045070E-01  7.5369567949035E-01
27  2.6000000000000E-01  1.7163702277800E+00  5.9145700497757E-01  7.6819970283443E-01
28  2.7000000000000E-01  1.6364036740508E+00  6.8404415871580E-01  7.8189022963931E-01
29  2.8000000000000E-01  1.5476978626767E+00  7.7643080565981E-01  7.9488828999260E-01
30  2.9000000000000E-01  1.4509880799807E+00  8.6784373341659E-01  8.0732167303863E-01
31  3.0000000000000E-01  1.3470544183880E+00  9.5752952376053E-01  8.1932359254799E-01
32  3.1000000000000E-01  1.2367165704300E+00  1.0447569315230E+00  8.3103124186744E-01
33  3.2000000000000E-01  1.1208285654754E+00  1.1288181256368E+00  8.4258424338427E-01
34  3.3000000000000E-01  1.0002734282192E+00  1.2090290044488E+00  8.5412299961838E-01
35  3.4000000000000E-01  8.7595773155643E-01  1.2847288356272E+00  8.6578695535545E-01
36  3.5000000000000E-01  7.4880601300370E-01  1.3552794976628E+00  8.7771278281244E-01
37  3.6000000000000E-01  6.1975502351361E-01  1.4200646140472E+00  8.9003250462519E-01
38  3.7000000000000E-01  4.8974778044691E-01  1.4784888721536E+00  9.0287157238877E-01
39  3.8000000000000E-01  3.5972740256190E-01  1.5299778065637E+00  9.1634692147398E-01
40  3.9000000000000E-01  2.3063071396625E-01  1.5739783015211E+00  9.3056502578399E-01
41  4.0000000000000E-01  1.0338161573307E-01  1.6099600302535E+00  9.4561997888983E-01
42  4.1000000000000E-01 -2.1115762127722E-02  1.6374180014714E+00  9.6159163047476E-01
43  4.2000000000000E-01 -1.4198409996502E-01  1.6558763271806E+00  9.7854380910530E-01
44  4.3000000000000E-01 -2.5838007392064E-01  1.6648932631827E+00  9.9652266391463E-01
45  4.4000000000000E-01 -3.6950162523261E-01  1.6640675066355E+00  1.0155551587258E+00
46  4.5000000000000E-01 -4.7459523433976E-01  1.6530456663996E+00  1.0356477523600E+00
47  4.6000000000000E-01 -5.7296310499102E-01  1.6315307542503E+00  1.0567852982943E+00
48  4.7000000000000E-01 -6.6397014961664E-01  1.5992914810328E+00  1.0789301953906E+00
49  4.8000000000000E-01 -7.4705065572958E-01  1.5561720840442E+00  1.1020218190880E+00
50  4.9000000000000E-01 -8.2171450469111E-01  1.5021023626773E+00  1.1259762592206E+00
51  5.0000000000000E-01 -8.8755280929930E-01  1.4371075607298E+00  1.1506863865137E+00
52  5.1000000000000E-01 -9.4424283574304E-01  1.3613177074945E+00  1.1760222648844E+00
53  5.2000000000000E-01 -9.9155207876077E-01  1.2749760170630E+00  1.2018319209907E+00
54  5.3000000000000E-01 -1.0293413664824E+00  1.1784459470489E+00  1.2279424761605E+00
55  5.4000000000000E-01 -1.0575668833804E+00  1.0722165344450E+00  1.2541616390100E+00
56  5.5000000000000E-01 -1.0762810158382E+00  9.5690565739699E-01  1.2802795498889E+00
57  5.6000000000000E-01 -1.0856319447325E+00  8.3326091655711E-01  1.3060709609400E+00
58  5.7000000000000E-01 -1.0858619326595E+00  7.0215788716784E-01  1.3312977282197E+00
59  5.8000000000000E-01 -1.0773042794233E+00  5.6459556144654E-01  1.3557115851839E+00
60  5.9000000000000E-01 -1.0603789474559E+00  4.2168887810805E-01  1.3790571601008E+00
61  6.0000000000000E-01 -1.0355868881709E+00  2.7465831957921E-01  1.4010751937965E+00
62  6.1000000000000E-01 -1.0035031300292E+00  1.2481664495666E-01  1.4215059087476E+00
63  6.2000000000000E-01 -9.6476871844324E-01 -2.6447084783779E-02  1.4400924760846E+00
64  6.3000000000000E-01 -9.2008162569712E-01 -1.7768594628876E-01  1.4565845236845E+00
65  6.4000000000000E-01 -8.7018677494928E-01 -3.2741573326841E-01  1.4707416263432E+00
66  6.5000000000000E-01 -8.1586534533448E-01 -4.7413727689296E-01  1.4823367181049E+00
67  6.6000000000000E-01 -7.5792354445551E-01 -6.1636004398989E-01  1.4911593672378E+00
68  6.7000000000000E-01 -6.9718104955040E-01 -7.5262649796283E-01  1.4970188561036E+00
69  6.8000000000000E-01 -6.3445932883684E-01 -8.8153666951771E-01  1.4997470112428E+00
70  6.9000000000000E-01 -5.7057005962537E-01 -1.0017723619098E+00  1.4992007333389E+00
71  7.0000000000000E-01 -5.0630385954939E-01 -1.1121204094442E+00  1.4952641822310E+00
72  7.1000000000000E-01 -4.4241954164310E-01 -1.2114944187410E+00  1.4878505786926E+00
73  7.2000000000000E-01 -3.7963409312113E-01 -1.2989544496857E+00  1.4769035921287E+00
74  7.3000000000000E-01 -3.1861356184864E-01 -1.3737241363498E+00  1.4623982914777E+00
75  7.4000000000000E-01 -2.5996501405358E-01 -1.4352048063277E+00  1.4443416452454E+00
76  7.5000000000000E-01 -2.0422970238020E-01 -1.4829862282377E+00  1.4227725655221E+00
77  7.6000000000000E-01 -1.5187755557933E-01 -1.5168536995487E+00  1.3977614998278E+00
78  7.7000000000000E-01 -1.0330307074232E-01 -1.5367912780151E+00  1.3694095834599E+00
79  7.8000000000000E-01 -5.8822656848819E-02 -1.5429810571653E+00  1.3378473734764E+00
80  7.9000000000000E-01 -1.8673445393630E-02 -1.5357984866477E+00  1.3032331933200E+00
81  8.0000000000000E-01  1.6986449113282E-02 -1.5158038388475E+00  1.2657511241929E+00
82  8.1000000000000E-01  4.8076268025105E-02 -1.4837300211023E+00  1.2256086854541E+00
83  8.2000000000000E-01  7.4589626328143E-02 -1.4404670251995E+00  1.1830342514044E+00
84  8.3000000000000E-01  9.6590316496593E-02 -1.3870433899564E+00  1.1382742557265E+00
85  8.4000000000000E-01  1.1420703000768E-01 -1.3246051261229E+00  1.0915902374944E+00
86  8.5000000000000E-01  1.2762714856570E-01 -1.2543926135261E+00  1.0432557840122E+00
87  8.6000000000000E-01  1.3708977315026E-01 -1.1777160265483E+00  9.9355342578529E-01
88  8.7000000000000E-01  1.4287817030279E-01 -1.0959298744424E+00  9.4277153768812E-01
89  8.8000000000000E-01  1.4531182137139E-01 -1.0104072568047E+00  8.9120129794702E-01
90  8.9000000000000E-01  1.4473826166766E-01 -9.2251443143069E-01  8.3913375297932E-01
91  9.0000000000000E-01  1.4152489270753E-01 -8.3358627192081E-01  7.8685703155167E-01
92  9.1000000000000E-01  1.3605094211806E-01 -7.4490315643357E-01  7.3465374627384E-01
93  9.2000000000000E-01  1.2869973271444E-01 -6.5766977798002E-01  6.8279861428925E-01
94  9.3000000000000E-01  1.1985140513724E-01 -5.7299630213334E-01  6.3155632232969E-01
95  9.4000000000000E-01  1.0987621783803E-01 -4.9188222186684E-01  5.8117965424863E-01
96  9.5000000000000E-01  9.9128524735162E-02 -4.1520317358699E-01  5.3190789191158E-01
97  9.6000000000000E-01  8.7941505239626E-02 -3.4370088575332E-01  4.8396549308541E-01
98  9.7000000000000E-01  7.6622694303438E-02 -2.7797633432912E-01  4.3756104289938E-01
99  9.8000000000000E-01  6.5450332438480E-02 -2.1848608038981E-01  3.9288646870870E-01
100  9.9000000000000E-01  5.4670528057932E-02 -1.6554166723520E-01  3.5011650192330E-01
101  1.0000000000000E+00  4.4495197736624E-02 -1.1931185990931E-01  3.0940836469363E-01
102  1.0100000000000E+00  3.5100724795464E-02 -7.9827421712799E-02  2.7090165438341E-01
103  1.0200000000000E+00  2.6627253632140E-02 -4.6988042406168E-02  2.3471839459057E-01
104  1.0300000000000E+00  1.9178517004205E-02 -2.0570963359197E-02  2.0096321816274E-01
105  1.0400000000000E+00  1.2822076542558E-02 -2.4078778617641E-04  1.6972364524036E-01
106  1.0500000000000E+00  7.5898435184783E-03  1.4440079196479E-02  1.4107041786370E-01
107  1.0600000000000E+00  3.4787375823819E-03  2.4000944626871E-02  1.1505785210022E-01
108  1.0700000000000E+00  4.5133606001026E-04  2.9052892961152E-02  9.1724168968454E-02
109  1.0800000000000E+00 -1.5636228992134E-03  3.0279959498177E-02  7.1091781924633E-02
110  1.0900000000000E+00 -2.6711144564754E-03  2.8432275927562E-02  5.3167384521413E-02
111  1.1000000000000E+00 -3.0117277757318E-03  2.4326493135258E-02  3.7939924251212E-02
112  1.1100000000000E+00 -2.7931018427876E-03  1.8944983325731E-02  2.5336387264408E-02
113  1.1200000000000E+00 -2.1996831019330E-03  1.3132369872357E-02  1.5325594133716E-02
114  1.1300000000000E+00 -1.4130259384430E-03  7.6343439028121E-03  7.8824477929791E-03
115  1.1400000000000E+00 -6.4068851133741E-04  3.1887346778801E-03  2.9449569213934E-03
116  1.1500000000000E+00 -1.0853985346395E-04  5.0364964938001E-04  4.1975205362931E-04
117  1.1600000000000E+00  6.4900496414532E-06 -2.8806478842714E-05 -2.2287474478898E-05
118  1.1700000000000E+00 -9.1312935763144E-09  4.1249842358905E-08  3.2843248940396E-08
119  1.18 -0.  0. -0.
120  1.19  0.  0.  0.
121  1.20  0.  0.  0.
122  1.21  0.  0.  0.
123  1.22  0.  0.  0.
124  1.23  0.  0.  0.
125  1.24  0.  0.  0.
126  1.25  0.  0.  0.
127  1.26  0.  0.  0.
128  1.27  0.  0.  0.
129  1.28  0.  0.  0.
130  1.29  0.  0.  0.
131  1.30  0.  0.  0.
132  1.31  0.  0.  0.
133  1.32  0.  0.  0.
134  1.33  0.  0.  0.
135  1.34  0.  0.  0.
136  1.35  0.  0.  0.
137  1.36  0.  0.  0.
138  1.37  0.  0.  0.
139  1.38  0.  0.  0.
140  1.39  0.  0.  0.
141  1.40  0.  0.  0.
142  1.41  0.  0.  0.
143  1.42  0.  0.  0.
144  1.43  0.  0.  0.
145  1.44  0.  0.  0.
146  1.45  0.  0.  0.
147  1.46  0.  0.  0.
148  1.47  0.  0.  0.
149  1.48  0.  0.  0.
150  1.49  0.  0.  0.
151  1.50  0.  0.  0.
152  1.51  0.  0.  0.
153  1.52  0.  0.  0.
154  1.53  0.  0.  0.
155  1.54  0.  0.  0.
156  1.55  0.  0.  0.
157  1.56  0.  0.  0.
158  1.57  0.  0.  0.
159  1.58  0.  0.  0.
160  1.59  0.  0.  0.
161  1.60  0.  0.  0.
162  1.61  0.  0.  0.
163  1.62  0.  0.  0.
164  1.63  0.  0.  0.
165  1.64  0.  0.  0.
166  1.65  0.  0.  0.
167  1.66  0.  0.  0.
168  1.67  0.  0.  0.
169  1.68  0.  0.  0.
170  1.69  0.  0.  0.
171  1.70  0.  0.  0.
172  1.71  0.  0.  0.
173  1.72  0.  0.  0.
174  1.73  0.  0.  0.
175  1.74  0.  0.  0.
176  1.75  0.  0.  0.
177  1.76  0.  0.  0.
178  1.77  0.  0.  0.
179  1.78  0.  0.  0.
180  1.79  0.  0.  0.
181  1.80  0.  0.  0.
182  1.81  0.  0.  0.
183  1.82  0.  0.  0.
184  1.83  0.  0.  0.
185  1.84  0.  0.  0.
186  1.85  0.  0.  0.
187  1.86  0.  0.  0.
188  1.87  0.  0.  0.
189  1.88  0.  0.  0.
190  1.89  0.  0.  0.
191  1.90  0.  0.  0.
192  1.91  0.  0.  0.
193  1.92  0.  0.  0.
194  1.93  0.  0.  0.
195  1.94  0.  0.  0.
196  1.95  0.  0.  0.
197  1.96  0.  0.  0.
198  1.97  0.  0.  0.
199  1.98  0.  0.  0.
200  1.99  0.  0.  0.
201  2.00  0.  0.  0.
202  2.01  0.  0.  0.
203  2.02  0.  0.  0.
204  2.03  0.  0.  0.
205  2.04  0.  0.  0.
206  2.05  0.  0.  0.
207  2.06  0.  0.  0.
208  2.07  0.  0.  0.
209  2.08  0.  0.  0.
210  2.09  0.  0.  0.
211  2.10  0.  0.  0.
212  2.11  0.  0.  0.
213  2.12  0.  0.  0.
214  2.13  0.  0.  0.
215  2.14  0.  0.  0.
216  2.15  0.  0.  0.
217  2.16  0.  0.  0.
218  2.17  0.  0.  0.
219  2.18  0.  0.  0.
220  2.19  0.  0.  0.
221  2.20  0.  0.  0.
222  2.21  0.  0.  0.
223  2.22  0.  0.  0.
224  2.23  0.  0.  0.
225  2.24  0.  0.  0.
226  2.25  0.  0.  0.
227  2.26  0.  0.  0.
228  2.27  0.  0.  0.
229  2.28  0.  0.  0.
230  2.29  0.  0.  0.
231  2.30  0.  0.  0.
232  2.31  0.  0.  0.
233  2.32  0.  0.  0.
234  2.33  0.  0.  0.
235  2.34  0.  0.  0.
236  2.35  0.  0.  0.
237  2.36  0.  0.  0.
238  2.37  0.  0.  0.
239  2.38  0.  0.  0.
240  2.39  0.  0.  0.
241  2.40  0.  0.  0.
242  2.41  0.  0.  0.
243  2.42  0.  0.  0.
244  2.43  0.  0.  0.
245  2.44  0.  0.  0.
246  2.45  0.  0.  0.
247  2.46  0.  0.  0.
248  2.47  0.  0.  0.
249  2.48  0.  0.  0.
250  2.49  0.  0.  0.
251  2.50  0.  0.  0.
252  2.51  0.  0.  0.
253  2.52  0.  0.  0.
254  2.53  0.  0.  0.
255  2.54  0.  0.  0.
256  2.55  0.  0.  0.
257  2.56  0.  0.  0.
258  2.57  0.  0.  0.
259  2.58  0.  0.  0.
260  2.59  0.  0.  0.
261  2.60  0.  0.  0.
262  2.61  0.  0.  0.
263  2.62  0.  0.  0.
264  2.63  0.  0.  0.
265  2.64  0.  0.  0.
266  2.65  0.  0.  0.
267  2.66  0.  0.  0.
268  2.67  0.  0.  0.
269  2.68  0.  0.  0.
270  2.69  0.  0.  0.
271  2.70  0.  0.  0.
272  2.71  0.  0.  0.
273  2.72  0.  0.  0.
274  2.73  0.  0.  0.
275  2.74  0.  0.  0.
276  2.75  0.  0.  0.
277  2.76  0.  0.  0.
278  2.77  0.  0.  0.
279  2.78  0.  0.  0.
280  2.79  0.  0.  0.
281  2.80  0.  0.  0.
282  2.81  0.  0.  0.
283  2.82  0.  0.  0.
284  2.83  0.  0.  0.
285  2.84  0.  0.  0.
286  2.85  0.  0.  0.
287  2.86  0.  0.  0.
288  2.87  0.  0.  0.
289  2.88  0.  0.  0.
290  2.89  0.  0.  0.
291  2.90  0.  0.  0.
292  2.91  0.  0.  0.
293  2.92  0.  0.  0.
294  2.93  0.  0.  0.
295  2.94  0.  0.  0.
296  2.95  0.  0.  0.
297  2.96  0.  0.  0.
298  2.97  0.  0.  0.
299  2.98  0.  0.  0.
300  2.99  0.  0.  0.
301  3.00  0.  0.  0.
302  3.01  0.  0.  0.
303  3.02  0.  0.  0.
304  3.03  0.  0.  0.
305  3.04  0.  0.  0.
306  3.05  0.  0.  0.
307  3.06  0.  0.  0.
308  3.07  0.  0.  0.
309  3.08  0.  0.  0.
310  3.09  0.  0.  0.
311  3.10  0.  0.  0.
312  3.11  0.  0.  0.
313  3.12  0.  0.  0.
314  3.13  0.  0.  0.
315  3.14  0.  0.  0.
316  3.15  0.  0.  0.
317  3.16  0.  0.  0.
318  3.17  0.  0.  0.
319  3.18  0.  0.  0.
320  3.19  0.  0.  0.
321  3.20  0.  0.  0.
322  3.21  0.  0.  0.
323  3.22  0.  0.  0.
324  3.23  0.  0.  0.
325  3.24  0.  0.  0.
326  3.25  0.  0.  0.
327  3.26  0.  0.  0.
328  3.27  0.  0.  0.
329  3.28  0.  0.  0.
330  3.29  0.  0.  0.
331  3.30  0.  0.  0.
332  3.31  0.  0.  0.
333  3.32  0.  0.  0.
334  3.33  0.  0.  0.
335  3.34  0.  0.  0.
336  3.35  0.  0.  0.
337  3.36  0.  0.  0.
338  3.37  0.  0.  0.
339  3.38  0.  0.  0.
340  3.39  0.  0.  0.
341  3.40  0.  0.  0.
342  3.41  0.  0.  0.
343  3.42  0.  0.  0.
344  3.43  0.  0.  0.
345  3.44  0.  0.  0.
346  3.45  0.  0.  0.
347  3.46  0.  0.  0.
348  3.47  0.  0.  0.
349  3.48  0.  0.  0.
350  3.49  0.  0.  0.
351  3.50  0.  0.  0.
352  3.51  0.  0.  0.
353  3.52  0.  0.  0.
354  3.53  0.  0.  0.
355  3.54  0.  0.  0.
356  3.55  0.  0.  0.
357  3.56  0.  0.  0.
358  3.57  0.  0.  0.
359  3.58  0.  0.  0.
360  3.59  0.  0.  0.
361  3.60  0.  0.  0.
362  3.61  0.  0.  0.
363  3.62  0.  0.  0.
364  3.63  0.  0.  0.
365  3.64  0.  0.  0.
366  3.65  0.  0.  0.
367  3.66  0.  0.  0.
368  3.67  0.  0.  0.
369  3.68  0.  0.  0.
370  3.69  0.  0.  0.
371  3.70  0.  0.  0.
372  3.71  0.  0.  0.
373  3.72  0.  0.  0.
374  3.73  0.  0.  0.
375  3.74  0.  0.  0.
376  3.75  0.  0.  0.
377  3.76  0.  0.  0.
378  3.77  0.  0.  0.
379  3.78  0.  0.  0.
380  3.79  0.  0.  0.
381  3.80  0.  0.  0.
382  3.81  0.  0.  0.
383  3.82  0.  0.  0.
384  3.83  0.  0.  0.
385  3.84  0.  0.  0.
386  3.85  0.  0.  0.
387  3.86  0.  0.  0.
388  3.87  0.  0.  0.
389  3.88  0.  0.  0.
390  3.89  0.  0.  0.
391  3.90  0.  0.  0.
392  3.91  0.  0.  0.
393  3.92  0.  0.  0.
394  3.93  0.  0.  0.
395  3.94  0.  0.  0.
396  3.95  0.  0.  0.
397  3.96  0.  0.  0.
398  3.97  0.  0.  0.
399  3.98  0.  0.  0.
400  3.99  0.  0.  0.
401  4.00  0.  0.  0.
402  4.01  0.  0.  0.
403  4.02  0.  0.  0.
404  4.03  0.  0.  0.
405  4.04  0.  0.  0.
406  4.05  0.  0.  0.
407  4.06  0.  0.  0.
408  4.07  0.  0.  0.
409  4.08  0.  0.  0.
410  4.09  0.  0.  0.
411  4.10  0.  0.  0.
412  4.11  0.  0.  0.
413  4.12  0.  0.  0.
414  4.13  0.  0.  0.
415  4.14  0.  0.  0.
416  4.15  0.  0.  0.
417  4.16  0.  0.  0.
418  4.17  0.  0.  0.
419  4.18  0.  0.  0.
420  4.19  0.  0.  0.
421  4.20  0.  0.  0.
422  4.21  0.  0.  0.
423  4.22  0.  0.  0.
424  4.23  0.  0.  0.
425  4.24  0.  0.  0.
426  4.25  0.  0.  0.
427  4.26  0.  0.  0.
428  4.27  0.  0.  0.
429  4.28  0.  0.  0.
430  4.29  0.  0.  0.
431  4.30  0.  0.  0.
432  4.31  0.  0.  0.
433  4.32  0.  0.  0.
434  4.33  0.  0.  0.
435  4.34  0.  0.  0.
436  4.35  0.  0.  0.
437  4.36  0.  0.  0.
438  4.37  0.  0.  0.
439  4.38  0.  0.  0.
440  4.39  0.  0.  0.
441  4.40  0.  0.  0.
442  4.41  0.  0.  0.
443  4.42  0.  0.  0.
444  4.43  0.  0.  0.
445  4.44  0.  0.  0.
446  4.45  0.  0.  0.
447  4.46  0.  0.  0.
448  4.47  0.  0.  0.
449  4.48  0.  0.  0.
450  4.49  0.  0.  0.
451  4.50  0.  0.  0.
452  4.51  0.  0.  0.
453  4.52  0.  0.  0.
454  4.53  0.  0.  0.
455  4.54  0.  0.  0.
456  4.55  0.  0.  0.
457  4.56  0.  0.  0.
458  4.57  0.  0.  0.
459  4.58  0.  0.  0.
460  4.59  0.  0.  0.
461  4.60  0.  0.  0.
462  4.61  0.  0.  0.
463  4.62  0.  0.  0.
464  4.63  0.  0.  0.
465  4.64  0.  0.  0.
466  4.65  0.  0.  0.
467  4.66  0.  0.  0.
468  4.67  0.  0.  0.
469  4.68  0.  0.  0.
470  4.69  0.  0.  0.
471  4.70  0.  0.  0.
472  4.71  0.  0.  0.
473  4.72  0.  0.  0.
474  4.73  0.  0.  0.
475  4.74  0.  0.  0.
476  4.75  0.  0.  0.
477  4.76  0.  0.  0.
478  4.77  0.  0.  0.
479  4.78  0.  0.  0.
480  4.79  0.  0.  0.
481  4.80  0.  0.  0.
482  4.81  0.  0.  0.
483  4.82  0.  0.  0.
484  4.83  0.  0.  0.
485  4.84  0.  0.  0.
486  4.85  0.  0.  0.
487  4.86  0.  0.  0.
488  4.87  0.  0.  0.
489  4.88  0.  0.  0.
490  4.89  0.  0.  0.
491  4.90  0.  0.  0.
492  4.91  0.  0.  0.
493  4.92  0.  0.  0.
494  4.93  0.  0.  0.
495  4.94  0.  0.  0.
496  4.95  0.  0.  0.
497  4.96  0.  0.  0.
498  4.97  0.  0.  0.
499  4.98  0.  0.  0.
500  4.99  0.  0.  0.
501  5.00  0.  0.  0.
502  5.01  0.  0.  0.
503  5.02  0.  0.  0.
504  5.03  0.  0.  0.
505  5.04  0.  0.  0.
506  5.05  0.  0.  0.
507  5.06  0.  0.  0.
508  5.07  0.  0.  0.
509  5.08  0.  0.  0.
510  5.09  0.  0.  0.
511  5.10  0.  0.  0.
512  5.11  0.  0.  0.
513  5.12  0.  0.  0.
514  5.13  0.  0.  0.
515  5.14  0.  0.  0.
516  5.15  0.  0.  0.
517  5.16  0.  0.  0.
518  5.17  0.  0.  0.
519  5.18  0.  0.  0.
520  5.19  0.  0.  0.
521  5.20  0.  0.  0.
522  5.21  0.  0.  0.
523  5.22  0.  0.  0.
524  5.23  0.  0.  0.
525  5.24  0.  0.  0.
526  5.25  0.  0.  0.
527  5.26  0.  0.  0.
528  5.27  0.  0.  0.
529  5.28  0.  0.  0.
530  5.29  0.  0.  0.
531  5.30  0.  0.  0.
532  5.31  0.  0.  0.
533  5.32  0.  0.  0.
534  5.33  0.  0.  0.
535  5.34  0.  0.  0.
536  5.35  0.  0.  0.
537  5.36  0.  0.  0.
538  5.37  0.  0.  0.
539  5.38  0.  0.  0.
540  5.39  0.  0.  0.
541  5.40  0.  0.  0.
542  5.41  0.  0.  0.
543  5.42  0.  0.  0.
544  5.43  0.  0.  0.
545  5.44  0.  0.  0.
546  5.45  0.  0.  0.
547  5.46  0.  0.  0.
548  5.47  0.  0.  0.
549  5.48  0.  0.  0.
550  5.49  0.  0.  0.
551  5.50  0.  0.  0.
552  5.51  0.  0.  0.
553  5.52  0.  0.  0.
554  5.53  0.  0.  0.
555  5.54  0.  0.  0.
556  5.55  0.  0.  0.
557  5.56  0.  0.  0.
558  5.57  0.  0.  0.
559  5.58  0.  0.  0.
560  5.59  0.  0.  0.
561  5.60  0.  0.  0.
562  5.61  0.  0.  0.
563  5.62  0.  0.  0.
564  5.63  0.  0.  0.
565  5.64  0.  0.  0.
566  5.65  0.  0.  0.
567  5.66  0.  0.  0.
568  5.67  0.  0.  0.
569  5.68  0.  0.  0.
570  5.69  0.  0.  0.
571  5.70  0.  0.  0.
572  5.71  0.  0.  0.
573  5.72  0.  0.  0.
574  5.73  0.  0.  0.
575  5.74  0.  0.  0.
576  5.75  0.  0.  0.
577  5.76  0.  0.  0.
578  5.77  0.  0.  0.
579  5.78  0.  0.  0.
580  5.79  0.  0.  0.
581  5.80  0.  0.  0.
582  5.81  0.  0.  0.
583  5.82  0.  0.  0.
584  5.83  0.  0.  0.
585  5.84  0.  0.  0.
586  5.85  0.  0.  0.
587  5.86  0.  0.  0.
588  5.87  0.  0.  0.
589  5.88  0.  0.  0.
590  5.89  0.  0.  0.
591  5.90  0.  0.  0.
592  5.91  0.  0.  0.
593  5.92  0.  0.  0.
594  5.93  0.  0.  0.
595  5.94  0.  0.  0.
596  5.95  0.  0.  0.
597  5.96  0.  0.  0.
598  5.97  0.  0.  0.
599  5.98  0.  0.  0.
600  5.99  0.  0.  0.
1                         6.7848812679823E+00 -1.5641521662917E+00
1  0.0000000000000E+00 -7.7249239227584E-09 -1.1610599589401E-08
2  1.0000000000000E-02  4.5544417004469E-03  4.2504901535407E-04
3  2.0000000000000E-02  1.8177973825975E-02  1.7082801232643E-03
4  3.0000000000000E-02  4.0751384122713E-02  3.8736943276895E-03
5  4.0000000000000E-02  7.2076547894854E-02  6.9604639060580E-03
6  5.0000000000000E-02  1.1187729506083E-01  1.1021715611664E-02
7  6.0000000000000E-02  1.5980066957967E-01  1.6122880784294E-02
8  7.0000000000000E-02  2.1541862362573E-01  2.2339663780052E-02
9  8.0000000000000E-02  2.7823019661494E-01  2.9755691741970E-02
10  9.0000000000000E-02  3.4766423387040E-01  3.8459918186318E-02
11  1.0000000000000E-01  4.2308270094673E-01  4.8543859857291E-02
12  1.1000000000000E-01  5.0378464714250E-01  6.0098750574305E-02
13  1.2000000000000E-01  5.8901086540132E-01  7.3212697227527E-02
14  1.3000000000000E-01  6.7794928568367E-01  8.7967921634142E-02
15  1.4000000000000E-01  7.6974112519134E-01  1.0443816771875E-01
16  1.5000000000000E-01  8.6348780191117E-01  1.2268634659396E-01
17  1.6000000000000E-01  9.5825859832654E-01  1.4276248285235E-01
18  1.7000000000000E-01  1.0530990404634E+00  1.6470201408454E-01
19  1.8000000000000E-01  1.1470399344392E+00  1.8852448272653E-01
20  1.9000000000000E-01  1.2391069791926E+00  2.1423264528749E-01
21  2.0000000000000E-01  1.3283308509663E+00  2.4181200932945E-01
22  2.1000000000000E-01  1.4137576332843E+00  2.7123079379900E-01
23  2.2000000000000E-01  1.4944594464912E+00  3.0244029398343E-01
24  2.3000000000000E-01  1.5695451142230E+00  3.3537561899982E-01
25  2.4000000000000E-01  1.6381706912131E+00  3.6995675780706E-01
26  2.5000000000000E-01  1.6995496682351E+00  4.0608991968571E-01
27  2.6000000000000E-01  1.7529626662391E+00  4.4366908731696E-01
28  2.7000000000000E-01  1.7977664332041E+00  4.8257771528322E-01
29  2.8000000000000E-01  1.8334019640623E+00  5.2269050419067E-01
30  2.9000000000000E-01  1.8594015762384E+00  5.6387518075607E-01
31  3.0000000000000E-01  1.8753947906873E+00  6.0599421708363E-01
32  3.1000000000000E-01  1.8811128904160E+00  6.4890642785245E-01
33  3.2000000000000E-01  1.8763920547774E+00  6.9246839201445E-01
34  3.3000000000000E-01  1.8611749976188E+00  7.3653565554729E-01
35  3.4000000000000E-01  1.8355110697809E+00  7.8096368341726E-01
36  3.5000000000000E-01  1.7995548205481E+00  8.2560854171916E-01
37  3.6000000000000E-01  1.7535630473789E+00  8.7032730446160E-01
38  3.7000000000000E-01  1.6978903975572E+00  9.1497819311363E-01
39  3.8000000000000E-01  1.6329836182045E+00  9.5942047027278E-01
40  3.9000000000000E-01  1.5593745813530E+00  1.0035141211148E+00
41  4.0000000000000E-01  1.4776722375374E+00  1.0471193671367E+00
42  4.1000000000000E-01  1.3885536737540E+00  1.0900960656499E+00
43  4.2000000000000E-01  1.2927544689575E+00  1.1323030551396E+00
44  4.3000000000000E-01  1.1910585519581E+00  1.1735975106759E+00
45  4.4000000000000E-01  1.0842877722904E+00  1.2138343748427E+00
46  4.5000000000000E-01  9.7329139419675E-01  1.2528659280542E+00
47  4.6000000000000E-01  8.5893571734492E-01  1.2905415576588E+00
48  4.7000000000000E-01  7.4209401556343E-01  1.3267077780369E+00
49  4.8000000000000E-01  6.2363696717806E-01  1.3612085442070E+00
50  4.9000000000000E-01  5.0442372814061E-01  1.3938858896125E+00
51  5.0000000000000E-01  3.8529377286720E-01  1.4245809052033E+00
52  5.1000000000000E-01  2.6705959851144E-01  1.4531350621569E+00
53  5.2000000000000E-01  1.5050035734669E-01  1.4793918651670E+00
54  5.3000000000000E-01  3.6356450148099E-02  1.5031988077702E+00
55  5.4000000000000E-01 -7.4674917901521E-02  1.5244095862899E+00
56  5.5000000000000E-01 -1.8194324707647E-01  1.5428865152668E+00
57  5.6000000000000E-01 -2.8484737423908E-01  1.5585030752804E+00
58  5.7000000000000E-01 -3.8283730434628E-01  1.5711465143722E+00
59  5.8000000000000E-01 -4.7541534063835E-01  1.5807204172967E+00
60  5.9000000000000E-01 -5.6213662593681E-01  1.5871471529004E+00
61  6.0000000000000E-01 -6.4260921605940E-01  1.5903701092998E+00
62  6.1000000000000E-01 -7.1649380915523E-01  1.5903556293189E+00
63  6.2000000000000E-01 -7.8350325175284E-01  1.5870945648430E+00
64  6.3000000000000E-01 -8.4340193370983E-01  1.5806033782115E+00
65  6.4000000000000E-01 -8.9600517048843E-01  1.5709247312480E+00
66  6.5000000000000E-01 -9.4117865290222E-01  1.5581275176216E+00
67  6.6000000000000E-01 -9.7883802251412E-01  1.5423063114617E+00
68  6.7000000000000E-01 -1.0089486062039E+00  1.5235802239314E+00
69  6.8000000000000E-01 -1.0315253171666E+00  1.5020911791403E+00
70  6.9000000000000E-01 -1.0466327029405E+00  1.4780016406607E+00
71  7.0000000000000E-01 -1.0543850951998E+00  1.4514918392645E+00
72  7.1000000000000E-01 -1.0549467921980E+00  1.4227565706128E+00
73  7.2000000000000E-01 -1.0485321840266E+00  1.3920016478210E+00
74  7.3000000000000E-01 -1.0354057143104E+00  1.3594401074431E+00
75  7.4000000000000E-01 -1.0158815604502E+00  1.3252882779456E+00
76  7.5000000000000E-01 -9.9032290874168E-01  1.2897618267007E+00
77  7.6000000000000E-01 -9.5914070110718E-01  1.2530719046191E+00
78  7.7000000000000E-01 -9.2279173699292E-01  1.2154215065593E+00
79  7.8000000000000E-01 -8.8177602718012E-01  1.1770021605578E+00
80  7.9000000000000E-01 -8.3663331552721E-01  1.1379910498241E+00
81  8.0000000000000E-01 -7.8793870945707E-01  1.0985486585888E+00
82  8.1000000000000E-01 -7.3629738953207E-01  1.0588170166728E+00
83  8.2000000000000E-01 -6.8233840171268E-01  1.0189185985875E+00
84  8.3000000000000E-01 -6.2670757168510E-01  9.7895591170218E-01
85  8.4000000000000E-01 -5.7005961764242E-01  9.3901178525414E-01
86  8.5000000000000E-01 -5.1304957469125E-01  8.9915034851420E-01
87  8.6000000000000E-01 -4.5632367917441E-01  8.5941866307178E-01
88  8.7000000000000E-01 -4.0050989320501E-01  8.1984895180462E-01
89  8.8000000000000E-01 -3.4620827722533E-01  7.8046134644974E-01
90  8.9000000000000E-01 -2.9398144018592E-01  7.4126705754881E-01
91  9.0000000000000E-01 -2.4434531191131E-01  7.0227185557189E-01
92  9.1000000000000E-01 -1.9776048952235E-01  6.6347974079397E-01
93  9.2000000000000E-01 -1.5462440882176E-01  6.2489667244436E-01
94  9.3000000000000E-01 -1.1526458200170E-01  5.8653422505908E-01
95  9.4000000000000E-01 -7.9933124894163E-02  5.4841304197283E-01
96  9.5000000000000E-01 -4.8802770542547E-02  5.1056596245856E-01
97  9.6000000000000E-01 -2.1964531744837E-02  4.7304070996112E-01
98  9.7000000000000E-01  5.7286570934413E-04  4.3590204382083E-01
99  9.8000000000000E-01  1.8881703946859E-02  3.9923329534063E-01
100  9.9000000000000E-01  3.3112123697532E-02  3.6313723037686E-01
101  1.0000000000000E+00  4.3487133877827E-02  3.2773620410045E-01
102  1.0100000000000E+00  5.0295863622563E-02  2.9317159834479E-01
103  1.0200000000000E+00  5.3885193917710E-02  2.5960255714476E-01
104  1.0300000000000E+00  5.4649957026575E-02  2.2720406081444E-01
105  1.0400000000000E+00  5.3021938571935E-02  1.9616440228513E-01
106  1.0500000000000E+00  4.9457957826380E-02  1.6668215059191E-01
107  1.0600000000000E+00  4.4427335099540E-02  1.3896270462938E-01
108  1.0700000000000E+00  3.8399079748761E-02  1.1321455486732E-01
109  1.0800000000000E+00  3.1829163650086E-02  8.9645390678703E-02
110  1.0900000000000E+00  2.5148107407848E-02  6.8458107367025E-02
111  1.1000000000000E+00  1.8747210113528E-02  4.9845743116680E-02
112  1.1100000000000E+00  1.2921590921515E-02  3.3958477202116E-02
113  1.1200000000000E+00  7.9670642201123E-03  2.0959759538098E-02
114  1.1300000000000E+00  4.1259516409982E-03  1.1001761192210E-02
115  1.1400000000000E+00  1.5326325406169E-03  4.1954179535002E-03
116  1.1500000000000E+00  2.1427456047958E-04  6.1045553582442E-04
117  1.1600000000000E+00 -1.1165426143435E-05 -3.2934374925454E-05
118  1.1700000000000E+00  1.6614258232569E-08  4.8229047715155E-08
119  1.18 -0. -0.
120  1.19  0.  0.
121  1.20  0.  0.
122  1.21  0.  0.
123  1.22  0.  0.
124  1.23  0.  0.
125  1.24  0.  0.
126  1.25  0.  0.
127  1.26  0.  0.
128  1.27  0.  0.
129  1.28  0.  0.
130  1.29  0.  0.
131  1.30  0.  0.
132  1.31  0.  0.
133  1.32  0.  0.
134  1.33  0.  0.
135  1.34  0.  0.
136  1.35  0.  0.
137  1.36  0.  0.
138  1.37  0.  0.
139  1.38  0.  0.
140  1.39  0.  0.
141  1.40  0.  0.
142  1.41  0.  0.
143  1.42  0.  0.
144  1.43  0.  0.
145  1.44  0.  0.
146  1.45  0.  0.
147  1.46  0.  0.
148  1.47  0.  0.
149  1.48  0.  0.
150  1.49  0.  0.
151  1.50  0.  0.
152  1.51  0.  0.
153  1.52  0.  0.
154  1.53  0.  0.
155  1.54  0.  0.
156  1.55  0.  0.
157  1.56  0.  0.
158  1.57  0.  0.
159  1.58  0.  0.
160  1.59  0.  0.
161  1.60  0.  0.
162  1.61  0.  0.
163  1.62  0.  0.
164  1.63  0.  0.
165  1.64  0.  0.