<UPF version="2.0.1">
  <PP_INFO>
    Generated using "atomic" code by A. Dal Corso  v.5.0.99 svn rev. 10869
    Author: TM
    Generation date: 10Apr2014
    Pseudopotential type: NC
    Element: Hf
    Functional: PBE

    Suggested minimum cutoff for wavefunctions:   0. Ry
    Suggested minimum cutoff for charge density:   0. Ry
    The Pseudo was generated with a Scalar-Relativistic Calculation
    L component and cutoff radius for Local Potential:  0   2.6000

    Valence configuration: 
    nl pn  l   occ       Rcut    Rcut US       E pseu
    6P  2  1  0.00      2.600      2.600    -0.102617
    5D  3  2  2.00      2.600      2.600    -0.197613
    6S  1  0  2.00      3.467      3.467    -0.375442
    Generation configuration:
    6P  2  1  0.00      2.600      2.600    -0.102618
    5D  3  2  2.00      2.600      2.600    -0.197613
    6S  1  0  2.00      2.600      2.600    -0.375442

    Pseudization used: troullier-martins
<PP_INPUTFILE>
 &input
   title='Hf',
   zed=72.0,
   rel=1,
   config='[Xe] 4f14 5d2.0 6s2.0 6p0',
   iswitch=3,
   dft='PBE'
 /
 &inputp
   pseudotype=2,
   file_pseudopw='Hf.pbe-n-nc.UPF',
   author='TM',
   lloc=0,
   nlcc=.true.,
   tm=.true.
 /
3
6P  2  1  0.00  0.00  2.60  2.60  0.0
5D  3  2  2.00  0.00  2.60  2.60  0.0
6S  1  0  2.00  0.00  2.60  2.60  0.0
</PP_INPUTFILE>
  </PP_INFO>
  <!--                               -->
  <!-- END OF HUMAN READABLE SECTION -->
  <!--                               -->
  <PP_HEADER generated='Generated using "atomic" code by A. Dal Corso  v.5.0.99 svn rev. 10869'
             author="TM"
             date="10Apr2014"
             comment=""
             element="Hf"
             pseudo_type="NC"
             relativistic="scalar"
             is_ultrasoft="F"
             is_paw="F"
             is_coulomb="F"
             has_so="F"
             has_wfc="F"
             has_gipaw="F"
             paw_as_gipaw="F"
             core_correction="T"
             functional="PBE"
             z_valence="4.000000000000000E+000"
             total_psenergy="-9.939758583451292E+000"
             wfc_cutoff="0.000000000000000E+000"
             rho_cutoff="0.000000000000000E+000"
             l_max="2"
             l_max_rho="4"
             l_local="0"
             mesh_size="1271"
             number_of_wfc="3"
             number_of_proj="2"/>
  <PP_MESH dx="1.250000000000000E-002" mesh="1271" xmin="-7.000000000000000E+000" rmax="1.000000000000000E+002"
zmesh="7.200000000000000E+001">
    <PP_R type="real" size="1271" columns="4">
 1.266502729936828E-005  1.282433373151420E-005  1.298564399189697E-005  1.314898328557297E-005 
 1.331437713463916E-005  1.348185138222096E-005  1.365143219651026E-005  1.382314607485432E-005 
 1.399701984789598E-005  1.417308068376604E-005  1.435135609232829E-005  1.453187392947804E-005 
 1.471466240149459E-005  1.489975006944857E-005  1.508716585366469E-005  1.527693903824053E-005 
 1.546909927562227E-005  1.566367659123795E-005  1.586070138818899E-005  1.606020445200080E-005 
 1.626221695543298E-005  1.646677046335018E-005  1.667389693765418E-005  1.688362874227798E-005 
 1.709599864824279E-005  1.731103983877847E-005  1.752878591450853E-005  1.774927089870034E-005 
 1.797252924258122E-005  1.819859583072167E-005  1.842750598648599E-005  1.865929547755176E-005 
 1.889400052149853E-005  1.913165779146690E-005  1.937230442188887E-005  1.961597801429002E-005 
 1.986271664316492E-005  2.011255886192633E-005  2.036554370892921E-005  2.062171071357065E-005 
 2.088109990246628E-005  2.114375180570461E-005  2.140970746317986E-005  2.167900843100461E-005 
 2.195169678800302E-005  2.222781514228562E-005  2.250740663790704E-005  2.279051496160731E-005 
 2.307718434963797E-005  2.336745959467418E-005  2.366138605281353E-005  2.395900965066309E-005 
 2.426037689251555E-005  2.456553486761556E-005  2.487453125751764E-005  2.518741434353632E-005 
 2.550423301429038E-005  2.582503677334168E-005  2.614987574693024E-005  2.647880069180662E-005 
 2.681186300316263E-005  2.714911472266204E-005  2.749060854657218E-005  2.783639783399777E-005 
 2.818653661521853E-005  2.854107960013137E-005  2.890008218679902E-005  2.926360047010603E-005 
 2.963169125052372E-005  3.000441204298548E-005  3.038182108587340E-005  3.076397735011829E-005 
 3.115094054841394E-005  3.154277114454732E-005  3.193953036284633E-005  3.234128019774602E-005 
 3.274808342347546E-005  3.316000360386630E-005  3.357710510228477E-005  3.399945309168865E-005 
 3.442711356481054E-005  3.486015334446942E-005  3.529864009401192E-005  3.574264232788472E-005 
 3.619222942234025E-005  3.664747162627669E-005  3.710844007221459E-005  3.757520678741148E-005 
 3.804784470511623E-005  3.852642767596512E-005  3.901103047952101E-005  3.950172883595788E-005 
 3.999859941789227E-005  4.050171986236344E-005  4.101116878296454E-005  4.152702578212583E-005 
 4.204937146355299E-005  4.257828744482143E-005  4.311385637012929E-005  4.365616192321084E-005 
 4.420528884041204E-005  4.476132292393092E-005  4.532435105522428E-005  4.589446120858308E-005 
 4.647174246487878E-005  4.705628502548210E-005  4.764818022635743E-005  4.824752055233408E-005 
 4.885439965155734E-005  4.946891235012125E-005  5.009115466688515E-005  5.072122382847699E-005 
 5.135921828448517E-005  5.200523772284139E-005  5.265938308539733E-005  5.332175658369671E-005 
 5.399246171494625E-005  5.467160327818726E-005  5.535928739067070E-005  5.605562150443831E-005 
 5.676071442311204E-005  5.747467631889496E-005  5.819761874978582E-005  5.892965467701028E-005 
 5.967089848267138E-005  6.042146598762179E-005  6.118147446956120E-005  6.195104268136113E-005 
 6.273029086962036E-005  6.351934079345379E-005  6.431831574351730E-005  6.512734056127238E-005 
 6.594654165849274E-005  6.677604703701647E-005  6.761598630874671E-005  6.846649071590350E-005 
 6.932769315153080E-005  7.019972818026131E-005  7.108273205934238E-005  7.197684275992674E-005 
 7.288219998863034E-005  7.379894520936216E-005  7.472722166542806E-005  7.566717440191285E-005 
 7.661895028834404E-005  7.758269804164027E-005  7.855856824934873E-005  7.954671339317479E-005 
 8.054728787280751E-005  8.156044803004516E-005  8.258635217322352E-005  8.362516060195220E-005 
 8.467703563216164E-005  8.574214162146529E-005  8.682064499484113E-005  8.791271427063538E-005 
 8.901852008689421E-005  9.013823522802621E-005  9.127203465180018E-005  9.242009551668297E-005 
 9.358259720952038E-005  9.475972137356706E-005  9.595165193686851E-005  9.715857514100015E-005 
 9.838067957016841E-005  9.961815618067638E-005  1.008711983307624E-004  1.021400018108116E-004 
 1.034247648739491E-004  1.047256882670177E-004  1.060429752619439E-004  1.073768316875010E-004 
 1.087274659614691E-004  1.100950891232013E-004  1.114799148665995E-004  1.128821595735029E-004 
 1.143020423475004E-004  1.157397850481640E-004  1.171956123257157E-004  1.186697516561298E-004 
 1.201624333766755E-004  1.216738907219087E-004  1.232043598601147E-004  1.247540799302099E-004 
 1.263232930791087E-004  1.279122444995575E-004  1.295211824684490E-004  1.311503583856141E-004 
 1.328000268131042E-004  1.344704455149679E-004  1.361618754975254E-004  1.378745810501529E-004 
 1.396088297865776E-004  1.413648926866926E-004  1.431430441388993E-004  1.449435619829792E-004 
 1.467667275535091E-004  1.486128257238184E-004  1.504821449505021E-004  1.523749773184929E-004 
 1.542916185866987E-004  1.562323682342176E-004  1.581975295071302E-004  1.601874094658836E-004 
 1.622023190332702E-004  1.642425730430086E-004  1.663084902889392E-004  1.684003935748347E-004 
 1.705186097648394E-004  1.726634698345429E-004  1.748353089226944E-004  1.770344663835704E-004 
 1.792612858399982E-004  1.815161152370483E-004  1.837993068964020E-004  1.861112175714004E-004 
 1.884522085027907E-004  1.908226454751686E-004  1.932228988741336E-004  1.956533437441630E-004 
 1.981143598472119E-004  2.006063317220539E-004  2.031296487443642E-004  2.056847051875611E-004 
 2.082719002844127E-004  2.108916382894159E-004  2.135443285419643E-004  2.162303855303068E-004 
 2.189502289563123E-004  2.217042838010503E-004  2.244929803911927E-004  2.273167544662559E-004 
 2.301760472466841E-004  2.330713055027911E-004  2.360029816245706E-004  2.389715336923803E-004 
 2.419774255485210E-004  2.450211268697106E-004  2.481031132404727E-004  2.512238662274488E-004 
 2.543838734546414E-004  2.575836286796095E-004  2.608236318706168E-004  2.641043892847536E-004 
 2.674264135470407E-004  2.707902237305277E-004  2.741963454373998E-004  2.776453108811032E-004 
 2.811376589695054E-004  2.846739353891008E-004  2.882546926902742E-004  2.918804903736393E-004 
 2.955518949774608E-004  2.992694801661774E-004  3.030338268200385E-004  3.068455231258673E-004 
 3.107051646689667E-004  3.146133545261802E-004  3.185707033601241E-004  3.225778295146052E-004 
 3.266353591112376E-004  3.307439261472761E-004  3.349041725946788E-004  3.391167485004172E-004 
 3.433823120880472E-004  3.477015298605576E-004  3.520750767045131E-004  3.565036359955060E-004 
 3.609878997049354E-004  3.655285685081294E-004  3.701263518938262E-004  3.747819682750345E-004 
 3.794961451012857E-004  3.842696189722997E-004  3.891031357530809E-004  3.939974506904597E-004 
 3.989533285311032E-004  4.039715436410066E-004  4.090528801264902E-004  4.141981319567182E-004 
 4.194081030877569E-004  4.246836075881958E-004  4.300254697663457E-004  4.354345242990401E-004 
 4.409116163620549E-004  4.464576017621676E-004  4.520733470708810E-004  4.577597297598245E-004 
 4.635176383378622E-004  4.693479724899244E-004  4.752516432175838E-004  4.812295729814031E-004 
 4.872826958450700E-004  4.934119576213467E-004  4.996183160198565E-004  5.059027407967255E-004 
 5.122662139061113E-004  5.187097296536336E-004  5.252342948517373E-004  5.318409289770091E-004 
 5.385306643294724E-004  5.453045461938864E-004  5.521636330030738E-004  5.591089965033035E-004 
 5.661417219217531E-004  5.732629081360770E-004  5.804736678461100E-004  5.877751277477266E-004 
 5.951684287088915E-004  6.026547259479219E-004  6.102351892139919E-004  6.179110029699100E-004 
 6.256833665771919E-004  6.335534944834640E-004  6.415226164122239E-004  6.495919775549859E-004 
 6.577628387658463E-004  6.660364767584927E-004  6.744141843056941E-004  6.828972704412998E-004 
 6.914870606647770E-004  7.001848971483247E-004  7.089921389465891E-004  7.179101622090196E-004 
 7.269403603948942E-004  7.360841444910528E-004  7.453429432323630E-004  7.547182033249652E-004 
 7.642113896723230E-004  7.738239856041166E-004  7.835574931080188E-004  7.934134330643790E-004 
 8.033933454838679E-004  8.134987897481050E-004  8.237313448533156E-004  8.340926096570548E-004 
 8.445842031280274E-004  8.552077645990588E-004  8.659649540232424E-004  8.768574522333108E-004 
 8.878869612042718E-004  8.990552043193410E-004  9.103639266392272E-004  9.218148951748006E-004 
 9.334098991631910E-004  9.451507503473638E-004  9.570392832592026E-004  9.690773555061620E-004 
 9.812668480615227E-004  9.936096655582946E-004  1.006107736586826E-003  1.018763013996141E-003 
 1.031577475199082E-003  1.044553122481284E-003  1.057691983314032E-003  1.070996110671065E-003 
 1.084467583349349E-003  1.098108506293898E-003  1.111921010926675E-003  1.125907255479628E-003 
 1.140069425331928E-003  1.154409733351424E-003  1.168930420240422E-003  1.183633754885790E-003 
 1.198522034713479E-003  1.213597586047505E-003  1.228862764473435E-003  1.244319955206454E-003 
 1.259971573464063E-003  1.275820064843457E-003  1.291867905703660E-003  1.308117603552454E-003 
 1.324571697438190E-003  1.341232758346512E-003  1.358103389602084E-003  1.375186227275365E-003 
 1.392483940594497E-003  1.409999232362376E-003  1.427734839378978E-003  1.445693532868981E-003 
 1.463878118914782E-003  1.482291438894947E-003  1.500936369928185E-003  1.519815825322903E-003 
 1.538932755032416E-003  1.558290146115885E-003  1.577891023205052E-003  1.597738448976839E-003 
 1.617835524631903E-003  1.638185390379202E-003  1.658791225926661E-003  1.679656250978010E-003 
 1.700783725735860E-003  1.722176951411129E-003  1.743839270738852E-003  1.765774068500494E-003 
 1.787984772052837E-003  1.810474851863496E-003  1.833247822053198E-003  1.856307240944868E-003 
 1.879656711619621E-003  1.903299882479757E-003  1.927240447818823E-003  1.951482148398864E-003 
 1.976028772034912E-003  2.000884154186851E-003  2.026052178558714E-003  2.051536777705512E-003 
 2.077341933647710E-003  2.103471678493426E-003  2.129930095068451E-003  2.156721317554209E-003 
 2.183849532133718E-003  2.211318977645699E-003  2.239133946246901E-003  2.267298784082756E-003 
 2.295817891966480E-003  2.324695726066702E-003  2.353936798603753E-003  2.383545678554706E-003 
 2.413526992367293E-003  2.443885424682799E-003  2.474625719068035E-003  2.505752678756540E-003 
 2.537271167399094E-003  2.569186109823670E-003  2.601502492804959E-003  2.634225365843546E-003 
 2.667359841954920E-003  2.700911098468384E-003  2.734884377836028E-003  2.769284988451878E-003 
 2.804118305481326E-003  2.839389771701029E-003  2.875104898349344E-003  2.911269265987470E-003 
 2.947888525371432E-003  2.984968398335009E-003  3.022514678683792E-003  3.060533233100472E-003 
 3.099030002061525E-003  3.138011000765429E-003  3.177482320072535E-003  3.217450127456790E-003 
 3.257920667969414E-003  3.298900265214696E-003  3.340395322338086E-003  3.382412323026678E-003 
 3.424957832522314E-003  3.468038498647413E-003  3.511661052843701E-003  3.555832311224029E-003 
 3.600559175637384E-003  3.645848634747325E-003  3.691707765123983E-003  3.738143732349776E-003 
 3.785163792139065E-003  3.832775291471850E-003  3.880985669741770E-003  3.929802459918514E-003 
 3.979233289724863E-003  4.029285882828547E-003  4.079968060049069E-003  4.131287740579732E-003 
 4.183252943225032E-003  4.235871787653601E-003  4.289152495666943E-003  4.343103392484082E-003 
 4.397732908042408E-003  4.453049578314873E-003  4.509062046643746E-003  4.565779065091169E-003 
 4.623209495806662E-003  4.681362312411868E-003  4.740246601402693E-003  4.799871563569091E-003 
 4.860246515432714E-003  4.921380890702622E-003  4.983284241749330E-003  5.045966241097381E-003 
 5.109436682936699E-003  5.173705484652959E-003  5.238782688377182E-003  5.304678462554849E-003 
 5.371403103534744E-003  5.438967037177764E-003  5.507380820486013E-003  5.576655143252316E-003 
 5.646800829730546E-003  5.717828840326927E-003  5.789750273312616E-003  5.862576366557855E-003 
 5.936318499287873E-003  6.010988193860938E-003  6.086597117568744E-003  6.163157084459443E-003 
 6.240680057183635E-003  6.319178148863524E-003  6.398663624985640E-003  6.479148905317342E-003 
 6.560646565847426E-003  6.643169340751169E-003  6.726730124380037E-003  6.811341973276477E-003 
 6.897018108214026E-003  6.983771916263069E-003  7.071616952882629E-003  7.160566944038393E-003 
 7.250635788347450E-003  7.341837559249968E-003  7.434186507208198E-003  7.527697061933156E-003 
 7.622383834639259E-003  7.718261620327385E-003  7.815345400096613E-003  7.913650343485042E-003 
 8.013191810840094E-003  8.113985355718556E-003  8.216046727316881E-003  8.319391872932024E-003 
 8.424036940453242E-003  8.529998280885250E-003  8.637292450903061E-003  8.745936215439032E-003 
 8.855946550302413E-003  8.967340644831834E-003  9.080135904581213E-003  9.194349954039364E-003 
 9.310000639383885E-003  9.427106031269651E-003  9.545684427652391E-003  9.665754356647807E-003 
 9.787334579426578E-003  9.910444093145874E-003  1.003510213391768E-002  1.016132817981447E-002 
 1.028914195391275E-002  1.041856342737475E-002  1.054961282256901E-002  1.068231061623015E-002 
 1.081667754265840E-002  1.095273459695940E-002  1.109050303832469E-002  1.123000439335351E-002 
 1.137126045941642E-002  1.151429330806112E-002  1.165912528846121E-002  1.180577903090831E-002 
 1.195427745034803E-002  1.210464374996053E-002  1.225690142478605E-002  1.241107426539605E-002 
 1.256718636161055E-002  1.272526210626220E-002  1.288532619900769E-002  1.304740365018716E-002 
 1.321151978473214E-002  1.337770024612253E-002  1.354597100039352E-002  1.371635834019281E-002 
 1.388888888888889E-002  1.406358960473104E-002  1.424048778506152E-002  1.441961107058091E-002 
 1.460098744966701E-002  1.478464526274805E-002  1.497061320673100E-002  1.515892033948544E-002 
 1.534959608438400E-002  1.554267023489974E-002  1.573817295926148E-002  1.593613480516767E-002 
 1.613658670455949E-002  1.633955997845404E-002  1.654508634183832E-002  1.675319790862473E-002 
 1.696392719666903E-002  1.717730713285118E-002  1.739337105822035E-002  1.761215273320445E-002 
 1.783368634288530E-002  1.805800650234016E-002  1.828514826205031E-002  1.851514711337783E-002 
 1.874803899411117E-002  1.898386029408050E-002  1.922264786084377E-002  1.946443900544408E-002 
 1.970927150823969E-002  1.995718362480730E-002  2.020821409191946E-002  2.046240213359744E-002 
 2.071978746723987E-002  2.098041030982880E-002  2.124431138421361E-002  2.151153192547407E-002 
 2.178211368736346E-002  2.205609894883255E-002  2.233353052063589E-002  2.261445175202099E-002 
 2.289890653750178E-002  2.318693932371726E-002  2.347859511637627E-002  2.377391948728980E-002 
 2.407295858149162E-002  2.437575912444859E-002  2.468236842936165E-002  2.499283440455846E-002 
 2.530720556097930E-002  2.562553101975696E-002  2.594786051989198E-002  2.627424442602459E-002 
 2.660473373630412E-002  2.693938009035771E-002  2.727823577735901E-002  2.762135374419850E-002 
 2.796878760375663E-002  2.832059164328077E-002  2.867682083286788E-002  2.903753083405357E-002 
 2.940277800850937E-002  2.977261942684944E-002  3.014711287754782E-002  3.052631687596810E-002 
 3.091029067350652E-002  3.129909426685012E-002  3.169278840735144E-002  3.209143461052090E-002 
 3.249509516563878E-002  3.290383314548808E-002  3.331771241620970E-002  3.373679764728179E-002 
 3.416115432162432E-002  3.459084874583100E-002  3.502594806052986E-002  3.546652025087398E-002 
 3.591263415716454E-002  3.636435948560697E-002  3.682176681920288E-002  3.728492762877878E-002 
 3.775391428415340E-002  3.822880006544593E-002  3.870965917452571E-002  3.919656674660694E-002 
 3.968959886198841E-002  4.018883255794112E-002  4.069434584074590E-002  4.120621769788151E-002 
 4.172452811036712E-002  4.224935806525924E-002  4.278078956830599E-002  4.331890565676105E-002 
 4.386379041235790E-002  4.441552897444825E-002  4.497420755330504E-002  4.553991344359268E-002 
 4.611273503800765E-002  4.669276184108931E-002  4.728008448320580E-002  4.787479473471496E-002 
 4.847698552030336E-002  4.908675093350658E-002  4.970418625141084E-002  5.032938794954084E-002 
 5.096245371693398E-002  5.160348247140422E-002  5.225257437499881E-002  5.290983084964809E-002 
 5.357535459301352E-002  5.424924959453409E-002  5.493162115167469E-002  5.562257588637957E-002 
 5.632222176173161E-002  5.703066809882237E-002  5.774802559383348E-002  5.847440633533278E-002 
 5.920992382178920E-002  5.995469297930617E-002  6.070883017957995E-002  6.147245325808247E-002 
 6.224568153247312E-002  6.302863582124316E-002  6.382143846259292E-002  6.462421333354817E-002 
 6.543708586931590E-002  6.626018308288337E-002  6.709363358486505E-002  6.793756760359732E-002 
 6.879211700548768E-002  6.965741531561892E-002  7.053359773861224E-002  7.142080117975405E-002 
 7.231916426638681E-002  7.322882736957069E-002  7.414993262601638E-002  7.508262396029398E-002 
 7.602704710732229E-002  7.698334963513923E-002  7.795168096796048E-002  7.893219240952705E-002 
 7.992503716674626E-002  8.093037037363165E-002  8.194834911554191E-002  8.297913245372669E-002 
 8.402288145017986E-002  8.507975919280536E-002  8.614993082090100E-002  8.723356355096064E-002 
 8.833082670280318E-002  8.944189172602866E-002  9.056693222680712E-002  9.170612399500604E-002 
 9.285964503165656E-002  9.402767557676768E-002  9.521039813748865E-002  9.640799751662549E-002 
 9.762066084151806E-002  9.884857759327774E-002  1.000919396363953E-001  1.013509412487200E-001 
 1.026257791518146E-001  1.039166525416956E-001  1.052237631199562E-001  1.065473151252837E-001 
 1.078875153653719E-001  1.092445732492346E-001  1.106187008199275E-001  1.120101127876788E-001 
 1.134190265634395E-001  1.148456622928538E-001  1.162902428906565E-001  1.177529940755053E-001 
 1.192341444052486E-001  1.207339253126389E-001  1.222525711414946E-001  1.237903191833158E-001 
 1.253474097143629E-001  1.269240860331990E-001  1.285205944987068E-001  1.301371845685824E-001 
 1.317741088383129E-001  1.334316230806460E-001  1.351099862855540E-001  1.368094607007025E-001 
 1.385303118724268E-001  1.402728086872230E-001  1.420372234137640E-001  1.438238317454402E-001 
 1.456329128434385E-001  1.474647493803612E-001  1.493196275843938E-001  1.511978372840299E-001 
 1.530996719533556E-001  1.550254287579078E-001  1.569754086011054E-001  1.589499161712656E-001 
 1.609492599892139E-001  1.629737524564891E-001  1.650237099041583E-001  1.670994526422436E-001 
 1.692013050097705E-001  1.713295954254482E-001  1.734846564389835E-001  1.756668247830447E-001 
 1.778764414258756E-001  1.801138516245713E-001  1.823794049790282E-001  1.846734554865665E-001 
 1.869963615972460E-001  1.893484862698717E-001  1.917301970287096E-001  1.941418660209118E-001 
 1.965838700746640E-001  1.990565907580687E-001  2.015604144387629E-001  2.040957323442908E-001 
 2.066629406232340E-001  2.092624404071082E-001  2.118946378730442E-001  2.145599443072504E-001 
 2.172587761692802E-001  2.199915551571032E-001  2.227587082729955E-001  2.255606678902619E-001 
 2.283978718207925E-001  2.312707633834742E-001  2.341797914734590E-001  2.371254106323036E-001 
 2.401080811189953E-001  2.431282689818651E-001  2.461864461314117E-001  2.492830904140369E-001 
 2.524186856867093E-001  2.555937218925705E-001  2.588086951374863E-001  2.620641077675678E-001 
 2.653604684476620E-001  2.686982922408308E-001  2.720781006888336E-001  2.755004218936157E-001 
 2.789657905998287E-001  2.824747482783837E-001  2.860278432110561E-001  2.896256305761588E-001 
 2.932686725352865E-001  2.969575383211576E-001  3.006928043265566E-001  3.044750541943955E-001 
 3.083048789089120E-001  3.121828768880087E-001  3.161096540767601E-001  3.200858240420917E-001 
 3.241120080686489E-001  3.281888352558784E-001  3.323169426163216E-001  3.364969751751525E-001 
 3.407295860709635E-001  3.450154366578173E-001  3.493551966085888E-001  3.537495440195986E-001 
 3.581991655165703E-001  3.627047563619166E-001  3.672670205633722E-001  3.718866709840022E-001 
 3.765644294535820E-001  3.813010268813903E-001  3.860972033704124E-001  3.909537083329813E-001 
 3.958713006078794E-001  4.008507485789032E-001  4.058928302949297E-001  4.109983335914859E-001 
 4.161680562138476E-001  4.214028059416939E-001  4.267034007153185E-001  4.320706687634397E-001 
 4.375054487326107E-001  4.430085898182570E-001  4.485809518973711E-001  4.542234056628635E-001 
 4.599368327596154E-001  4.657221259222356E-001  4.715801891145494E-001  4.775119376708504E-001 
 4.835182984389174E-001  4.896002099248408E-001  4.957586224396654E-001  5.019944982478741E-001 
 5.083088117177506E-001  5.147025494736194E-001  5.211767105500138E-001  5.277323065477750E-001 
 5.343703617921131E-001  5.410919134926669E-001  5.478980119055632E-001  5.547897204975268E-001 
 5.617681161120477E-001  5.688342891376361E-001  5.759893436782058E-001  5.832343977255835E-001 
 5.905705833342053E-001  5.979990467979994E-001  6.055209488294931E-001  6.131374647411846E-001 
 6.208497846291786E-001  6.286591135591495E-001  6.365666717546321E-001  6.445736947876802E-001 
 6.526814337719354E-001  6.608911555581070E-001  6.692041429319280E-001  6.776216948145897E-001 
 6.861451264656970E-001  6.947757696887891E-001  7.035149730394259E-001  7.123641020359126E-001 
 7.213245393726596E-001  7.303976851362285E-001  7.395849570241069E-001  7.488877905662162E-001 
 7.583076393492255E-001  7.678459752436734E-001  7.775042886339466E-001  7.872840886511648E-001 
 7.971869034089756E-001  8.072142802423331E-001  8.173677859492703E-001  8.276490070357082E-001 
 8.380595499633618E-001  8.486010414007413E-001  8.592751284773317E-001  8.700834790409572E-001 
 8.810277819183798E-001  8.921097471791938E-001  9.033311064030141E-001  9.146936129500514E-001 
 9.261990422350723E-001  9.378491920048077E-001  9.496458826188642E-001  9.615909573341478E-001 
 9.736862825928869E-001  9.859337483142629E-001  9.983352681897093E-001  1.010892779981941E+000 
 1.023608245827720E+000  1.036483652544457E+000  1.049521011940648E+000  1.062722361130221E+000 
 1.076089762850847E+000  1.089625305786238E+000  1.103331104892519E+000  1.117209301728685E+000 
 1.131262064791224E+000  1.145491589852960E+000  1.159900100306129E+000  1.174489847509806E+000 
 1.189263111141676E+000  1.204222199554235E+000  1.219369450135485E+000  1.234707229674143E+000 
 1.250237934729470E+000  1.265963992005728E+000  1.281887858731360E+000  1.298012023042941E+000 
 1.314339004373946E+000  1.330871353848429E+000  1.347611654679631E+000  1.364562522573612E+000 
 1.381726606137971E+000  1.399106587295682E+000  1.416705181704162E+000  1.434525139179595E+000 
 1.452569244126587E+000  1.470840315973250E+000  1.489341209611730E+000  1.508074815844300E+000 
 1.527044061835050E+000  1.546251911567255E+000  1.565701366306518E+000  1.585395465069709E+000 
 1.605337285099829E+000  1.625529942346832E+000  1.645976591954491E+000  1.666680428753410E+000 
 1.687644687760208E+000  1.708872644683008E+000  1.730367616433270E+000  1.752132961644058E+000 
 1.774172081194848E+000  1.796488418742902E+000  1.819085461261369E+000  1.841966739584120E+000 
 1.865135828957438E+000  1.888596349598682E+000  1.912351967261927E+000  1.936406393810766E+000 
 1.960763387798292E+000  1.985426755054361E+000  2.010400349280294E+000  2.035688072650989E+000 
 2.061293876424675E+000  2.087221761560292E+000  2.113475779342634E+000  2.140060032015402E+000 
 2.166978673422154E+000  2.194235909655381E+000  2.221835999713704E+000  2.249783256167338E+000 
 2.278082045831972E+000  2.306736790451057E+000  2.335751967386742E+000  2.365132110319460E+000 
 2.394881809956310E+000  2.425005714748395E+000  2.455508531617117E+000  2.486395026689676E+000 
 2.517670026043769E+000  2.549338416461667E+000  2.581405146193810E+000  2.613875225731951E+000 
 2.646753728592083E+000  2.680045792107175E+000  2.713756618229874E+000  2.747891474345357E+000 
 2.782455694094331E+000  2.817454678206457E+000  2.852893895344213E+000  2.888778882957370E+000 
 2.925115248148261E+000  2.961908668547862E+000  2.999164893202974E+000  3.036889743474502E+000 
 3.075089113947044E+000  3.113768973349962E+000  3.152935365489974E+000  3.192594410195539E+000 
 3.232752304273087E+000  3.273415322475258E+000  3.314589818481387E+000  3.356282225890233E+000 
 3.398499059225283E+000  3.441246914952643E+000  3.484532472511730E+000  3.528362495358990E+000 
 3.572743832024652E+000  3.617683417182872E+000  3.663188272735267E+000  3.709265508908085E+000 
 3.755922325363236E+000  3.803166012323202E+000  3.851003951710194E+000  3.899443618299577E+000 
 3.948492580887791E+000  3.998158503475047E+000  4.048449146462780E+000  4.099372367866282E+000 
 4.150936124542508E+000  4.203148473433331E+000  4.256017572824508E+000  4.309551683620366E+000 
 4.363759170634641E+000  4.418648503897473E+000  4.474228259978840E+000  4.530507123328727E+000 
 4.587493887634013E+000  4.645197457192570E+000  4.703626848304549E+000  4.762791190681172E+000 
 4.822699728871321E+000  4.883361823705956E+000  4.944786953760821E+000  5.006984716837469E+000 
 5.069964831462901E+000  5.133737138408184E+000  5.198311602226003E+000  5.263698312807715E+000 
 5.329907486959892E+000  5.396949470000678E+000  5.464834737376339E+000  5.533573896297999E+000 
 5.603177687399099E+000  5.673656986413619E+000  5.745022805875400E+000  5.817286296838948E+000 
 5.890458750621730E+000  5.964551600568527E+000  6.039576423837898E+000  6.115544943211096E+000 
 6.192469028923855E+000  6.270360700521049E+000  6.349232128734847E+000  6.429095637386383E+000 
 6.509963705311347E+000  6.591848968309901E+000  6.674764221120963E+000  6.758722419421489E+000 
 6.843736681850789E+000  6.929820292060306E+000  7.016986700789299E+000  7.105249527966447E+000 
 7.194622564838083E+000  7.285119776123062E+000  7.376755302194738E+000  7.469543461290519E+000 
 7.563498751749020E+000  7.658635854275539E+000  7.754969634235916E+000  7.852515143979239E+000 
 7.951287625189887E+000  8.051302511268979E+000  8.152575429745957E+000  8.255122204720392E+000 
 8.358958859334475E+000  8.464101618276779E+000  8.570566910317273E+000  8.678371370874457E+000 
 8.787531844614641E+000  8.898065388083900E+000  9.009989272373319E+000  9.123320985817497E+000 
 9.238078236727247E+000  9.354278956156520E+000  9.471941300704104E+000  9.591083655350754E+000 
 9.711724636331747E+000  9.833883094045824E+000  9.957578116000555E+000  1.008282902979474E+001 
 1.020965540613853E+001  1.033807706191121E+001  1.046811406325780E+001  1.059978672872433E+001 
 1.073311563243264E+001  1.086812160729523E+001  1.100482574827031E+001  1.114324941565804E+001 
 1.128341423843811E+001  1.142534211764920E+001  1.156905522981123E+001  1.171457603039033E+001 
 1.186192725730766E+001  1.201113193449225E+001  1.216221337547842E+001  1.231519518704874E+001 
 1.247010127292248E+001  1.262695583749073E+001  1.278578338959835E+001  1.294660874637345E+001 
 1.310945703710527E+001  1.327435370717052E+001  1.344132452200940E+001  1.361039557115145E+001 
 1.378159327229203E+001  1.395494437542030E+001  1.413047596699877E+001  1.430821547419575E+001 
 1.448819066917089E+001  1.467042967341452E+001  1.485496096214186E+001  1.504181336874217E+001 
 1.523101608928415E+001  1.542259868707785E+001  1.561659109729390E+001  1.581302363164113E+001 
 1.601192698310262E+001  1.621333223073174E+001  1.641727084450822E+001  1.662377469025533E+001 
 1.683287603461914E+001  1.704460755011009E+001  1.725900232020827E+001  1.747609384453273E+001 