<UPF version="2.0.1">
  <PP_INFO>
    Generated using "atomic" code by A. Dal Corso  v.5.0.99 svn rev. 10869
    Author: TM
    Generation date: 10Apr2014
    Pseudopotential type: NC
    Element: Ru
    Functional: PBE

    Suggested minimum cutoff for wavefunctions:   0. Ry
    Suggested minimum cutoff for charge density:   0. Ry
    The Pseudo was generated with a Scalar-Relativistic Calculation
    L component and cutoff radius for Local Potential:  0   2.7000

    Valence configuration: 
    nl pn  l   occ       Rcut    Rcut US       E pseu
    5P  2  1  0.00      2.700      2.700    -0.067057
    4D  3  2  7.00      2.700      2.700    -0.382349
    5S  1  0  1.00      3.273      3.273    -0.311586
    Generation configuration:
    5P  2  1  0.00      2.700      2.700    -0.067058
    4D  3  2  7.00      2.700      2.700    -0.382349
    5S  1  0  1.00      2.700      2.700    -0.311585

    Pseudization used: troullier-martins
<PP_INPUTFILE>
 &amp;input

   title='Ru',
   zed=44.0,
   rel=1,
   config='[Kr] 4d7.0 5s1 5p0',
   iswitch=3,
   dft='PBE'
 /
 &amp;inputp

   pseudotype=2,
   file_pseudopw='Ru.pbe-n-nc.UPF',
   author='TM',
   lloc=0,
   nlcc=.true.,
   tm=.true.
 /
3
5P  2  1  0.00  0.00  2.70  2.70  0.0
4D  3  2  7.00  0.00  2.70  2.70  0.0
5S  1  0  1.00  0.00  2.70  2.70  0.0
</PP_INPUTFILE>
  </PP_INFO>
  <!--                               -->
  <!-- END OF HUMAN READABLE SECTION -->
  <!--                               -->
  <PP_HEADER generated='Generated using "atomic" code by A. Dal Corso  v.5.0.99 svn rev. 10869'
             author="TM"
             date="10Apr2014"
             comment=""
             element="Ru"
             pseudo_type="NC"
             relativistic="scalar"
             is_ultrasoft="F"
             is_paw="F"
             is_coulomb="F"
             has_so="F"
             has_wfc="F"
             has_gipaw="F"
             paw_as_gipaw="F"
             core_correction="T"
             functional="PBE"
             z_valence="8.000000000000000E+000"
             total_psenergy="-4.665936146069737E+001"
             wfc_cutoff="0.000000000000000E+000"
             rho_cutoff="0.000000000000000E+000"
             l_max="2"
             l_max_rho="4"
             l_local="0"
             mesh_size="1233"
             number_of_wfc="3"
             number_of_proj="2"/>
  <PP_MESH dx="1.250000000000000E-002" mesh="1233" xmin="-7.000000000000000E+000" rmax="1.000000000000000E+002"
zmesh="4.400000000000000E+001">
    <PP_R type="real" size="1233" columns="4">
 2.072459012623901E-005  2.098527337884141E-005  2.124923562310414E-005  2.151651810366486E-005 
 2.178716258395500E-005  2.206121135272520E-005  2.233870723065315E-005  2.261969357703435E-005 
 2.290421429655705E-005  2.319231384616260E-005  2.348403724199175E-005  2.377943006641860E-005 
 2.407853847517296E-005  2.438140920455220E-005  2.468808957872404E-005  2.499862751712087E-005 
 2.531307154192735E-005  2.563147078566210E-005  2.595387499885472E-005  2.628033455781949E-005 
 2.661090047252669E-005  2.694562439457302E-005  2.728455862525229E-005  2.762775612372761E-005 
 2.797527051530639E-005  2.832715609981931E-005  2.868346786010488E-005  2.904426147060055E-005 
 2.940959330604200E-005  2.977952045027182E-005  3.015410070515890E-005  3.053339259963015E-005 
 3.091745539881577E-005  3.130634911330948E-005  3.170013450854543E-005  3.209887311429276E-005 
 3.250262723426988E-005  3.291145995587945E-005  3.332543516006598E-005  3.374461753129743E-005 
 3.416907256767210E-005  3.459886659115299E-005  3.503406675793069E-005  3.547474106891664E-005 
 3.592095838036857E-005  3.637278841464919E-005  3.683030177112061E-005  3.729356993717559E-005 
 3.776266529940759E-005  3.823766115492139E-005  3.871863172278577E-005  3.920565215563050E-005 
 3.969879855138908E-005  4.019814796518911E-005  4.070377842139250E-005  4.121576892578671E-005 
 4.173419947792971E-005  4.225915108365002E-005  4.279070576770403E-005  4.332894658659265E-005 
 4.387395764153885E-005  4.442582409162880E-005  4.498463216711811E-005  4.555046918290543E-005 
 4.612342355217577E-005  4.670358480021498E-005  4.729104357839840E-005  4.788589167835532E-005 
 4.848822204631155E-005  4.909812879761260E-005  4.971570723142921E-005  5.034105384564811E-005 
 5.097426635195007E-005  5.161544369107743E-005  5.226468604829400E-005  5.292209486903895E-005 
 5.358777287477802E-005  5.426182407905394E-005  5.494435380373871E-005  5.563546869549053E-005 
 5.633527674241724E-005  5.704388729094996E-005  5.776141106292860E-005  5.848796017290227E-005 
 5.922364814564769E-005  5.996858993390731E-005  6.072290193635115E-005  6.148670201576425E-005 
 6.226010951746292E-005  6.304324528794292E-005  6.383623169376166E-005  6.463919264065835E-005 
 6.545225359291461E-005  6.627554159295836E-005  6.710918528121470E-005  6.795331491620591E-005 
 6.880806239490490E-005  6.967356127334416E-005  7.054994678748429E-005  7.143735587434501E-005 
 7.233592719340152E-005  7.324580114825060E-005  7.416711990854883E-005  7.510002743222687E-005 
 7.604466948798345E-005  7.700119367806163E-005  7.796974946131214E-005  7.895048817654667E-005 
 7.994356306618473E-005  8.094912930019840E-005  8.196734400035751E-005  8.299836626478053E-005 
 8.404235719279390E-005  8.509947991010409E-005  8.616989959428654E-005  8.725378350059463E-005 
 8.835130098809387E-005  8.946262354612462E-005  9.058792482109752E-005  9.172738064362633E-005 
 9.288116905600152E-005  9.404947034000992E-005  9.523246704510407E-005  9.643034401692592E-005 
 9.764328842618953E-005  9.887148979792656E-005  1.001151400411001E-004  1.013744334785909E-004 
 1.026495668775606E-004  1.039407394801971E-004  1.052481530348465E-004  1.065720118275366E-004 
 1.079125227138972E-004  1.092698951514815E-004  1.106443412324946E-004  1.120360757169330E-004 
 1.134453160661413E-004  1.148722824767912E-004  1.163171979152875E-004  1.177802881526074E-004 
 1.192617817995769E-004  1.207619103425926E-004  1.222809081797914E-004  1.238190126576756E-004 
 1.253764641081993E-004  1.269535058863205E-004  1.285503844080252E-004  1.301673491888315E-004 
 1.318046528827759E-004  1.334625513218921E-004  1.351413035561840E-004  1.368411718941036E-004 
 1.385624219435372E-004  1.403053226533068E-004  1.420701463551946E-004  1.438571688064943E-004 
 1.456666692330996E-004  1.474989303731338E-004  1.493542385211276E-004  1.512328835727539E-004 
 1.531351590701243E-004  1.550613622476552E-004  1.570117940785121E-004  1.589867593216366E-004 
 1.609865665693665E-004  1.630115282956522E-004  1.650619609048839E-004  1.671381847813281E-004 
 1.692405243391895E-004  1.713693080733017E-004  1.735248686104537E-004  1.757075427613652E-004 
 1.779176715733130E-004  1.801556003834203E-004  1.824216788726173E-004  1.847162611202775E-004 
 1.870397056595461E-004  1.893923755333593E-004  1.917746383511712E-004  1.941868663463942E-004 
 1.966294364345599E-004  1.991027302722143E-004  2.016071343165513E-004  2.041430398857981E-004 
 2.067108432203596E-004  2.093109455447305E-004  2.119437531301892E-004  2.146096773582775E-004 
 2.173091347850796E-004  2.200425472063112E-004  2.228103417232234E-004  2.256129508093412E-004 
 2.284508123780360E-004  2.313243698509516E-004  2.342340722272898E-004  2.371803741539660E-004 
 2.401637359966512E-004  2.431846239117029E-004  2.462435099190034E-004  2.493408719757156E-004 
 2.524771940509615E-004  2.556529662014469E-004  2.588686846480313E-004  2.621248518532641E-004 
 2.654219765998967E-004  2.687605740703777E-004  2.721411659273550E-004  2.755642803951841E-004 
 2.790304523424645E-004  2.825402233656157E-004  2.860941418735000E-004  2.896927631731152E-004 
 2.933366495563607E-004  2.970263703878973E-004  3.007625021941123E-004  3.045456287532006E-004 
 3.083763411863849E-004  3.122552380502760E-004  3.161829254304004E-004  3.201600170359031E-004 
 3.241871342954376E-004  3.282649064542700E-004  3.323939706725960E-004  3.365749721251000E-004 
 3.408085641017663E-004  3.450954081099533E-004  3.494361739777598E-004  3.538315399586839E-004 
 3.582821928376020E-004  3.627888280380823E-004  3.673521497310426E-004  3.719728709447824E-004 
 3.766517136763922E-004  3.813894090045672E-004  3.861866972038428E-004  3.910443278602587E-004 
 3.959630599884890E-004  4.009436621504355E-004  4.059869125753190E-004  4.110935992812798E-004 
 4.162645201985041E-004  4.215004832939065E-004  4.268023066973730E-004  4.321708188295967E-004 
 4.376068585315212E-004  4.431112751954090E-004  4.486849288975632E-004  4.543286905327143E-004 
 4.600434419500998E-004  4.658300760912559E-004  4.716894971295396E-004  4.776226206114098E-004 
 4.836303735994812E-004  4.897136948173812E-004  4.958735347964266E-004  5.021108560241465E-004 
 5.084266330946728E-004  5.148218528610221E-004  5.212975145892939E-004  5.278546301148085E-004 
 5.344942240002070E-004  5.412173336955427E-004  5.480250097003836E-004  5.549183157279553E-004 
 5.618983288713500E-004  5.689661397718216E-004  5.761228527892033E-004  5.833695861744644E-004 
 5.907074722444397E-004  5.981376575587571E-004  6.056613030989883E-004  6.132795844500565E-004 
 6.209936919839220E-004  6.288048310455814E-004  6.367142221414050E-004  6.447231011298431E-004 
 6.528327194145326E-004  6.610443441398290E-004  6.693592583888020E-004  6.777787613837207E-004 
 6.863041686890569E-004  6.949368124170476E-004  7.036780414358385E-004  7.125292215802475E-004 
 7.214917358651807E-004  7.305669847017288E-004  7.397563861159871E-004  7.490613759706219E-004 
 7.584834081892291E-004  7.680239549835127E-004  7.776845070833189E-004  7.874665739695687E-004 
 7.973716841101145E-004  8.074013851985674E-004  8.175572443961288E-004  8.278408485764599E-004 
 8.382538045736367E-004  8.487977394332186E-004  8.594743006664792E-004  8.702851565078332E-004 
 8.812319961755002E-004  8.923165301354504E-004  9.035404903686663E-004  9.149056306417693E-004 
 9.264137267810506E-004  9.380665769499443E-004  9.498660019299981E-004  9.618138454053709E-004 
 9.739119742509134E-004  9.861622788238723E-004  9.985666732592595E-004  1.011127095768944E-003 
 1.023845508944496E-003  1.036723900063850E-003  1.049764281401821E-003  1.062968690544522E-003 
 1.076339190707748E-003  1.089877871059352E-003  1.103586847045681E-003  1.117468260722127E-003 
 1.131524281087817E-003  1.145757104424531E-003  1.160168954639873E-003  1.174762083614759E-003 
 1.189538771555281E-003  1.204501327348996E-003  1.219652088925685E-003  1.234993423622670E-003 
 1.250527728554710E-003  1.266257430988555E-003  1.282184988722212E-003  1.298312890468984E-003 
 1.314643656246329E-003  1.331179837769626E-003  1.347924018850880E-003  1.364878815802453E-003 
 1.382046877845863E-003  1.399430887525733E-003  1.417033561128942E-003  1.434857649109054E-003 
 1.452905936516081E-003  1.471181243431649E-003  1.489686425409645E-003  1.508424373922401E-003 
 1.527398016812494E-003  1.546610318750232E-003  1.566064281696877E-003  1.585762945373720E-003 
 1.605709387737037E-003  1.625906725459028E-003  1.646358114414806E-003  1.667066750175503E-003 
 1.688035868507589E-003  1.709268745878464E-003  1.730768699968416E-003  1.752539090189016E-003 
 1.774583318208026E-003  1.796904828480925E-003  1.819507108789104E-003  1.842393690784846E-003 
 1.865568150543155E-003  1.889034109120513E-003  1.912795233120691E-003  1.936855235267656E-003 
 1.961217874985693E-003  1.985886958986827E-003  2.010866341865621E-003  2.036159926701471E-003 
 2.061771665668467E-003  2.087705560652929E-003  2.113965663878716E-003  2.140556078540379E-003 
 2.167480959444310E-003  2.194744513657929E-003  2.222351001167047E-003  2.250304735541507E-003 
 2.278610084609176E-003  2.307271471138434E-003  2.336293373529237E-003  2.365680326512878E-003 
 2.395436921860553E-003  2.425567809100823E-003  2.456077696246121E-003  2.486971350528386E-003 
 2.518253599143954E-003  2.549929330007812E-003  2.582003492517358E-003  2.614481098325737E-003 
 2.647367222124932E-003  2.680667002438695E-003  2.714385642425446E-003  2.748528410691288E-003 
 2.783100642113226E-003  2.818107738672756E-003  2.853555170299939E-003  2.889448475728082E-003 
 2.925793263359187E-003  2.962595212140266E-003  2.999860072450688E-003  3.037593667000693E-003 
 3.075801891741198E-003  3.114490716785056E-003  3.153666187339893E-003  3.193334424652686E-003 
 3.233501626966220E-003  3.274174070487574E-003  3.315358110368805E-003  3.357060181699928E-003 
 3.399286800514435E-003  3.442044564807424E-003  3.485340155566556E-003  3.529180337815978E-003 
 3.573571961673356E-003  3.618521963420235E-003  3.664037366585838E-003  3.710125283044509E-003 
 3.756792914126967E-003  3.804047551745513E-003  3.851896579533413E-003  3.900347473998610E-003 
 3.949407805691935E-003  3.999085240390035E-003  4.049387540293148E-003  4.100322565237974E-003 
 4.151898273925790E-003  4.204122725166006E-003  4.257004079135387E-003  4.310550598653076E-003 
 4.364770650471687E-003  4.419672706584629E-003  4.475265345549865E-003  4.531557253830345E-003 
 4.588557227151261E-003  4.646274171874411E-003  4.704717106389836E-003  4.763895162524950E-003 
 4.823817586971434E-003  4.884493742730015E-003  4.945933110573477E-003  5.008145290528046E-003 
 5.071140003373405E-003  5.134927092161611E-003  5.199516523755057E-003  5.264918390383838E-003 
 5.331142911222678E-003  5.398200433987685E-003  5.466101436553231E-003  5.534856528589109E-003 
 5.604476453218332E-003  5.674972088695766E-003  5.746354450107874E-003  5.818634691093866E-003 
 5.891824105588445E-003  5.965934129586532E-003  6.040976342930154E-003  6.116962471117815E-003 
 6.193904387136651E-003  6.271814113317573E-003  6.350703823213805E-003  6.430585843503023E-003 
 6.511472655913411E-003  6.593376899173986E-003  6.676311370989385E-003  6.760289030039562E-003 
 6.845322998004597E-003  6.931426561614984E-003  7.018613174727725E-003  7.106896460428497E-003 
 7.196290213160304E-003  7.286808400878884E-003  7.378465167235221E-003  7.471274833785549E-003 
 7.565251902229083E-003  7.660411056673966E-003  7.756767165931680E-003  7.854335285840329E-003 
 7.953130661617168E-003  8.053168730240656E-003  8.154465122862541E-003  8.257035667250261E-003 
 8.360896390260053E-003  8.466063520341205E-003  8.572553490071751E-003  8.680382938726116E-003 
 8.789568714875034E-003  8.900127879018159E-003  9.012077706249840E-003  9.125435688958336E-003 
 9.240219539559075E-003  9.356447193262245E-003  9.474136810875191E-003  9.593306781640125E-003 
 9.713975726107427E-003  9.836162499045170E-003  9.959886192385218E-003  1.008516613820636E-002 
 1.021202191175504E-002  1.034047333450395E-002  1.047054047724923E-002  1.060224366324656E-002 
 1.073560347138670E-002  1.087064073941100E-002  1.100737656716733E-002  1.114583231990696E-002 
 1.128602963162295E-002  1.142799040843048E-002  1.157173683198976E-002  1.171729136297192E-002 
 1.186467674456855E-002  1.201391600604540E-002  1.216503246634069E-002  1.231804973770880E-002 
 1.247299172940970E-002  1.262988265144481E-002  1.278874701833991E-002  1.294960965297552E-002 
 1.311249569046561E-002  1.327743058208491E-002  1.344444009924581E-002  1.361355033752513E-002 
 1.378478772074167E-002  1.395817900508495E-002  1.413375128329592E-002  1.431153198890023E-002 
 1.449154890049486E-002  1.467383014608846E-002  1.485840420749653E-002  1.504529992479169E-002 
 1.523454650080999E-002  1.542617350571397E-002  1.562021088161301E-002  1.581668894724187E-002 
 1.601563840269804E-002  1.621709033423870E-002  1.642107621913802E-002  1.662762793060549E-002 
 1.683677774276632E-002  1.704855833570414E-002  1.726300280056748E-002  1.748014464474025E-002 
 1.770001779707739E-002  1.792265661320629E-002  1.814809588089494E-002  1.837637082548757E-002 
 1.860751711540869E-002  1.884157086773637E-002  1.907856865384562E-002  1.931854750512269E-002 
 1.956154491875133E-002  1.980759886357178E-002  2.005674778601353E-002  2.030903061610263E-002 
 2.056448677354454E-002  2.082315617388359E-002  2.108507923473985E-002  2.135029688212445E-002 
 2.161885055683441E-002  2.189078222092778E-002  2.216613436428030E-002  2.244495001122459E-002 
 2.272727272727273E-002  2.301314662592352E-002  2.330261637555521E-002  2.359572720640513E-002 
 2.389252491763693E-002  2.419305588449680E-002  2.449736706555981E-002  2.480550601006709E-002 
 2.511752086535564E-002  2.543346038438139E-002  2.575337393333696E-002  2.607731149936528E-002 
 2.640532369837008E-002  2.673746178292480E-002  2.707377765028088E-002  2.741432385047683E-002 
 2.775915359454932E-002  2.810832076284739E-002  2.846187991345148E-002  2.881988629069819E-002 
 2.918239583381230E-002  2.954946518564753E-002  2.992115170153686E-002  3.029751345825462E-002 
 3.067860926309100E-002  3.106449866304083E-002  3.145524195410799E-002  3.185090019072668E-002 
 3.225153519530132E-002  3.265720956786649E-002  3.306798669586821E-002  3.348393076406854E-002 
 3.390510676457434E-002  3.433158050699258E-002  3.476341862871318E-002  3.520068860532121E-002 
 3.564345876114021E-002  3.609179827990782E-002  3.654577721558600E-002  3.700546650330707E-002 
 3.747093797045746E-002  3.794226434790098E-002  3.841951928134300E-002  3.890277734283785E-002 
 3.939211404244083E-002  3.988760584000679E-002  4.038933015713724E-002  4.089736538927748E-002 
 4.141179091796614E-002  4.193268712323866E-002  4.246013539618687E-002  4.299421815167660E-002 
 4.353501884122492E-002  4.408262196603989E-002  4.463711309022383E-002  4.519857885414300E-002 
 4.576710698796538E-002  4.634278632536854E-002  4.692570681742017E-002  4.751595954663312E-002 
 4.811363674119715E-002  4.871883178938999E-002  4.933163925416916E-002  4.995215488794780E-002 
 5.058047564755612E-002  5.121669970939111E-002  5.186092648475691E-002  5.251325663539783E-002 
 5.317379208922710E-002  5.384263605625322E-002  5.451989304470677E-002  5.520566887737020E-002 
 5.590007070811252E-002  5.660320703863255E-002  5.731518773541249E-002  5.803612404688470E-002 
 5.876612862081470E-002  5.950531552190231E-002  6.025380024960472E-002  6.101169975618346E-002 
 6.177913246497830E-002  6.255621828891153E-002  6.334307864922389E-002  6.413983649444771E-002 
 6.494661631961740E-002  6.576354418572185E-002  6.659074773940238E-002  6.742835623289702E-002 
 6.827650054423709E-002  6.913531319769695E-002  7.000492838450070E-002  7.088548198379080E-002 
 7.177711158385838E-002  7.267995650364260E-002  7.359415781449917E-002  7.451985836224258E-002 
 7.545720278946708E-002  7.640633755814615E-002  7.736741097251859E-002  7.834057320226084E-002 
 7.932597630595094E-002  8.032377425482894E-002  8.133412295685410E-002  8.235718028106684E-002 
 8.339310608225560E-002  8.444206222593419E-002  8.550421261363442E-002  8.657972320851505E-002 
 8.766876206129484E-002  8.877149933651034E-002  8.988810733910403E-002  9.101876054134839E-002 
 9.216363561010628E-002  9.332291143443662E-002  9.449676915354570E-002  9.568539218508999E-002 
 9.688896625383686E-002  9.810767942068283E-002  9.934172211203993E-002  1.005912871495895E-001 
 1.018565697804106E-001  1.031377677074888E-001  1.044350811206066E-001  1.057487127276243E-001 
 1.070788677861533E-001  1.084257541356273E-001  1.097895822297792E-001  1.111705651695229E-001 
 1.125689187362526E-001  1.139848614255582E-001  1.154186144813655E-001  1.168704019305066E-001 
 1.183404506177239E-001  1.198289902411157E-001  1.213362533880268E-001  1.228624755713902E-001 
 1.244078952665274E-001  1.259727539484096E-001  1.275572961293899E-001  1.291617693974079E-001 
 1.307864244546757E-001  1.324315151568518E-001  1.340972985527049E-001  1.357840349242800E-001 
 1.374919878275671E-001  1.392214241336815E-001  1.409726140705653E-001  1.427458312652083E-001 
 1.445413527864052E-001  1.463594591880469E-001  1.482004345529571E-001  1.500645665372826E-001 
 1.519521464154380E-001  1.538634691256199E-001  1.557988333158905E-001  1.577585413908417E-001 
 1.597428995588477E-001  1.617522178799090E-001  1.637868103141015E-001  1.658469947706327E-001 
 1.679330931575148E-001  1.700454314318656E-001  1.721843396508375E-001  1.743501520231915E-001 
 1.765432069615177E-001  1.787638471351112E-001  1.810124195235177E-001  1.832892754707472E-001 
 1.855947707401738E-001  1.879292655701244E-001  1.902931247301651E-001  1.926867175780996E-001 
 1.951104181176795E-001  1.975646050570455E-001  2.000496618679003E-001  2.025659768454258E-001 
 2.051139431689575E-001  2.076939589634166E-001  2.103064273615202E-001  2.129517565667713E-001 
 2.156303599172392E-001  2.183426559501480E-001  2.210890684672702E-001  2.238700266011495E-001 
 2.266859648821529E-001  2.295373233063649E-001  2.324245474043411E-001  2.353480883107203E-001 
 2.383084028347175E-001  2.413059535315003E-001  2.443412087744626E-001  2.474146428284125E-001 
 2.505267359236729E-001  2.536779743311219E-001  2.568688504381725E-001  2.600998628257073E-001 
 2.633715163459864E-001  2.666843222015276E-001  2.700387980249863E-001  2.734354679600350E-001 
 2.768748627432607E-001  2.803575197870969E-001  2.838839832637912E-001  2.874548041904368E-001 
 2.910705405150691E-001  2.947317572038439E-001  2.984390263293188E-001  3.021929271598361E-001 
 3.059940462500388E-001  3.098429775325174E-001  3.137403224106158E-001  3.176866898524011E-001 
 3.216826964858138E-001  3.257289666950215E-001  3.298261327179756E-001  3.339748347452032E-001 
 3.381757210198375E-001  3.424294479389043E-001  3.467366801558904E-001  3.510980906845915E-001 
 3.555143610042766E-001  3.599861811661689E-001  3.645142499012654E-001  3.690992747295195E-001 
 3.737419720703878E-001  3.784430673547760E-001  3.832032951383875E-001  3.880233992164968E-001 
 3.929041327401742E-001  3.978462583339611E-001  4.028505482150374E-001  4.079177843138785E-001 
 4.130487583964333E-001  4.182442721878425E-001  4.235051374977049E-001  4.288321763469292E-001 
 4.342262210961743E-001  4.396881145759050E-001  4.452187102180913E-001  4.508188721895530E-001 
 4.564894755269924E-001  4.622314062737188E-001  4.680455616180917E-001  4.739328500337144E-001 
 4.798941914213779E-001  4.859305172528032E-001  4.920427707161835E-001  4.982319068635562E-001 
 5.044988927600378E-001  5.108447076349233E-001  5.172703430346984E-001  5.237768029779682E-001 
 5.303651041123346E-001  5.370362758732556E-001  5.437913606448898E-001  5.506314139229768E-001 
 5.575575044797585E-001  5.645707145309738E-001  5.716721399049636E-001  5.788628902138885E-001 
 5.861440890271150E-001  5.935168740467726E-001  6.009823972855183E-001  6.085418252465490E-001 
 6.161963391058616E-001  6.239471348968204E-001  6.317954236970384E-001  6.397424318176058E-001 
 6.477894009947117E-001  6.559375885836599E-001  6.641882677553396E-001  6.725427276951587E-001 
 6.810022738044779E-001  6.895682279045899E-001  6.982419284432485E-001  7.070247307038104E-001 
 7.159180070169993E-001  7.249231469753296E-001  7.340415576502437E-001  7.432746638119585E-001 
 7.526239081520980E-001  7.620907515091129E-001  7.716766730965353E-001  7.813831707341188E-001 
 7.912117610818648E-001  8.011639798770123E-001  8.112413821739980E-001  8.214455425874303E-001 
 8.317780555381372E-001  8.422405355022863E-001  8.528346172636589E-001  8.635619561690864E-001 
 8.744242283870940E-001  8.854231311698186E-001  8.965603831181944E-001  9.078377244504985E-001 
 9.192569172742598E-001  9.308197458615864E-001  9.425280169279731E-001  9.543835599145911E-001 
 9.663882272741542E-001  9.785438947603627E-001  9.908524617209888E-001  1.003315851394666E+000 
 1.015936011211383E+000  1.028714913096790E+000  1.041654553780307E+000  1.054756955107113E+000 
 1.068024164354076E+000  1.081458254549630E+000  1.095061324797700E+000  1.108835500605692E+000 
 1.122782934216595E+000  1.136905804945291E+000  1.151206319519060E+000  1.165686712422402E+000 
 1.180349246246170E+000  1.195196212041101E+000  1.210229929675811E+000  1.225452748199263E+000 
 1.240867046207824E+000  1.256475232216920E+000  1.272279745037367E+000  1.288283054156452E+000 
 1.304487660123778E+000  1.320896094942000E+000  1.337510922462442E+000  1.354334738785704E+000 
 1.371370172667320E+000  1.388619885928486E+000  1.406086573871997E+000  1.423772965703384E+000 
 1.441681824957349E+000  1.459815949929590E+000  1.478178174114023E+000  1.496771366645539E+000 
 1.515598432748300E+000  1.534662314189685E+000  1.553965989739960E+000  1.573512475637696E+000 
 1.593304826061088E+000  1.613346133605158E+000  1.633639529764979E+000  1.654188185424994E+000 
 1.674995311354451E+000  1.696064158709112E+000  1.717398019539243E+000  1.739000227303998E+000 
 1.760874157392295E+000  1.783023227650208E+000  1.805450898915030E+000  1.828160675556030E+000 
 1.851156106022003E+000  1.874440783395753E+000  1.898018345955484E+000  1.921892477743318E+000 
 1.946066909140924E+000  1.970545417452384E+000  1.995331827494430E+000  2.020430012194053E+000 
 2.045843893193677E+000  2.071577441463919E+000  2.097634677924043E+000  2.124019674070267E+000 
 2.150736552611912E+000  2.177789488115611E+000  2.205182707657578E+000  2.232920491484093E+000 
 2.261007173680317E+000  2.289447142847480E+000  2.318244842788630E+000  2.347404773202974E+000 
 2.376931490388960E+000  2.406829607956228E+000  2.437103797546467E+000  2.467758789563400E+000 
 2.498799373911900E+000  2.530230400746417E+000  2.562056781228848E+000  2.594283488295887E+000 
 2.626915557436083E+000  2.659958087476634E+000  2.693416241380076E+000  2.727295247051035E+000 
 2.761600398153067E+000  2.796337054935830E+000  2.831510645072624E+000  2.867126664508458E+000 
 2.903190678318841E+000  2.939708321579295E+000  2.976685300245877E+000  3.014127392046742E+000 
 3.052040447384898E+000  3.090430390252389E+000  3.129303219155880E+000  3.168665008053981E+000 
 3.208521907306296E+000  3.248880144634410E+000  3.289746026095026E+000  3.331125937065254E+000 
 3.373026343240377E+000  3.415453791644113E+000  3.458414911651582E+000  3.501916416025203E+000 
 3.545965101963525E+000  3.590567852163352E+000  3.635731635895152E+000  3.681463510092008E+000 
 3.727770620452318E+000  3.774660202556275E+000  3.822139582996487E+000  3.870216180522753E+000 
 3.918897507201235E+000  3.968191169588283E+000  4.018104869918919E+000  4.068646407310379E+000 
 4.119823678980713E+000  4.171644681482727E+000  4.224117511953508E+000  4.277250369379557E+000 
 4.331051555877955E+000  4.385529477993559E+000  4.440692648012521E+000  4.496549685292403E+000 
 4.553109317608905E+000  4.610380382519657E+000  4.668371828745077E+000  4.727092717566605E+000 
 4.786552224242608E+000  4.846759639441956E+000  4.907724370695775E+000  4.969455943867367E+000 
 5.031964004640617E+000  5.095258320027211E+000  5.159348779892684E+000  5.224245398501792E+000 
 5.289958316083234E+000  5.356497800414060E+000  5.423874248424088E+000  5.492098187820381E+000 
 5.561180278732281E+000  5.631131315377053E+000  5.701962227746468E+000  5.773684083314711E+000 
 5.846308088767613E+000  5.919845591753790E+000  5.994308082657710E+000  6.069707196395049E+000 
 6.146054714230750E+000  6.223362565619786E+000  6.301642830071227E+000  6.380907739035671E+000 
 6.461169677816385E+000  6.542441187504622E+000  6.624734966939095E+000  6.708063874690279E+000 
 6.792440931069558E+000  6.877879320163633E+000  6.964392391894649E+000  7.051993664106055E+000 
 7.140696824674868E+000  7.230515733650410E+000  7.321464425419921E+000  7.413557110901553E+000 
 7.506808179764747E+000  7.601232202678751E+000  7.696843933589263E+000  7.793658312023736E+000 
 7.891690465425797E+000  7.990955711518836E+000  8.091469560699524E+000  8.193247718461311E+000 
 8.296306087848384E+000  8.400660771940665E+000  8.506328076369822E+000  8.613324511867171E+000 
 8.721666796843460E+000  8.831371860001109E+000  8.942456842979466E+000  9.054939103033091E+000 
 9.168836215743980E+000  9.284165977767740E+000  9.400946409614290E+000  9.519195758463734E+000 
 9.638932501017377E+000  9.760175346384862E+000  9.882943239007469E+000  1.000725536161816E+001 
 1.013313113823903E+001  1.026059023721626E+001  1.038965257429339E+001  1.052033831572317E+001 
 1.065266788141857E+001  1.078666194814348E+001  1.092234145274339E+001  1.105972759541698E+001 
 1.119884184302856E+001  1.133970593246232E+001  1.148234187401885E+001  1.162677195485419E+001 
 1.177301874246232E+001  1.192110508820137E+001  1.207105413086412E+001  1.222288930029358E+001 
 1.237663432104385E+001  1.253231321608724E+001  1.268995031056786E+001  1.284957023560239E+001 
 1.301119793212891E+001  1.317485865480378E+001  1.334057797594793E+001  1.350838178954246E+001 
 1.367829631527460E+001  1.385034810263473E+001  1.402456403506463E+001  1.420097133415820E+001 
 1.437959756391487E+001  1.456047063504638E+001  1.474361880933816E+001  1.492907070406500E+001 
 1.511685529646277E+001  1.530700192825612E+001  1.549954031024308E+001  1.569450052693760E+001 
 1.589191304127013E+001  1.609180869934771E+001  1.629421873527363E+001  1.649917477602776E+001 
 1.670670884640850E+001  1.691685337403652E+001  1.712964119442185E+001  1.734510555609436E+001 
 1.756328012579886E+001  1.778419899375583E+001  1.800789667898777E+001  1.823440813471316E+001 
 1.846376875380782E+001  1.869601437433505E+001  1.893118128514566E+001  1.916930623154781E+001 
 1.941042642104890E+001  1.965457952916913E+001  1.990180370532832E+001  2.015213757880703E+001 
 2.040562026478224E+001  2.066229137043937E+001  2.092219100116093E+001  2.118535976679292E+001 
 2.145183878799045E+001  2.172166970264267E+001  2.199489467237902E+001  2.227155638915691E+001 
 2.255169808193241E+001  2.283536352341504E+001  2.312259703690707E+001  2.341344350322941E+001 
 2.370794836773418E+001  2.400615764740557E+001  2.430811793805032E+001  2.461387642157809E+001 
 2.492348087337406E+001  2.523697966976375E+001  2.555442179557183E+001  2.587585685177639E+001 
 2.620133506325883E+001  2.653090728665194E+001  2.686462501828618E+001  2.720254040223599E+001 
 2.754470623846769E+001  2.789117599108924E+001  2.824200379670445E+001  2.859724447287174E+001 