<UPF version="2.0.1">
  <PP_INFO>
    Generated using "atomic" code by A. Dal Corso  v.5.0.99 svn rev. 10869
    Author: TM
    Generation date: 10Apr2014
    Pseudopotential type: NC
    Element:  V
    Functional: PBE

    Suggested minimum cutoff for wavefunctions:   0. Ry
    Suggested minimum cutoff for charge density:   0. Ry
    The Pseudo was generated with a Scalar-Relativistic Calculation
    L component and cutoff radius for Local Potential:  0   2.3500

    Valence configuration: 
    nl pn  l   occ       Rcut    Rcut US       E pseu
    4P  2  1  0.00      2.700      2.700    -0.106124
    3D  3  2  3.00      2.350      2.350    -0.379583
    4S  1  0  2.00      3.034      3.034    -0.345587
    Generation configuration:
    4P  2  1  0.00      2.700      2.700    -0.106125
    3D  3  2  3.00      2.350      2.350    -0.379583
    4S  1  0  2.00      2.350      2.350    -0.345587

    Pseudization used: troullier-martins
<PP_INPUTFILE>
 &amp;input

   title='V',
   zed=23.,
   rel=1,
   config='[Ar] 4s2.0 4p0.0 3d3.0',
   iswitch=3,
   dft='PBE'
 /
 &amp;inputp

   pseudotype=2,
   file_pseudopw='V.pbe-n-nc.UPF',
   author='TM',
   lloc=0,
   nlcc=.true.,
   tm=.true.
 /
3
4P  2  1  0.00  0.00  2.70  2.70  0.0
3D  3  2  3.00  0.00  2.35  2.35  0.0
4S  1  0  2.00  0.00  2.35  2.35  0.0
</PP_INPUTFILE>
  </PP_INFO>
  <!--                               -->
  <!-- END OF HUMAN READABLE SECTION -->
  <!--                               -->
  <PP_HEADER generated='Generated using "atomic" code by A. Dal Corso  v.5.0.99 svn rev. 10869'
             author="TM"
             date="10Apr2014"
             comment=""
             element=" V"
             pseudo_type="NC"
             relativistic="scalar"
             is_ultrasoft="F"
             is_paw="F"
             is_coulomb="F"
             has_so="F"
             has_wfc="F"
             has_gipaw="F"
             paw_as_gipaw="F"
             core_correction="T"
             functional="PBE"
             z_valence="5.000000000000000E+000"
             total_psenergy="-1.641244513666027E+001"
             wfc_cutoff="0.000000000000000E+000"
             rho_cutoff="0.000000000000000E+000"
             l_max="2"
             l_max_rho="4"
             l_local="0"
             mesh_size="1181"
             number_of_wfc="3"
             number_of_proj="2"/>
  <PP_MESH dx="1.250000000000000E-002" mesh="1181" xmin="-7.000000000000000E+000" rmax="1.000000000000000E+002"
zmesh="2.300000000000000E+001">
    <PP_R type="real" size="1181" columns="4">
 3.964704198063114E-005  4.014574037691401E-005  4.065071162680792E-005  4.116203463309800E-005 
 4.167978929104434E-005  4.220405650086560E-005  4.273491818037994E-005  4.327245727780484E-005 
 4.381675778471784E-005  4.436790474918064E-005  4.492598428902770E-005  4.549108360532254E-005 
 4.606329099598305E-005  4.664269586957812E-005  4.722938875929817E-005  4.782346133710079E-005 
 4.842500642803492E-005  4.903411802474488E-005  4.965089130215685E-005  5.027542263235034E-005 
 5.090780959961628E-005  5.154815101570491E-005  5.219654693526525E-005  5.285309867147890E-005 
 5.351790881189048E-005  5.419108123443693E-005  5.487272112367889E-005  5.556293498723584E-005 
 5.626183067242818E-005  5.696951738312870E-005  5.768610569682572E-005  5.841170758190117E-005 
 5.914643641512582E-005  5.989040699937466E-005  6.064373558156516E-005  6.140653987082094E-005 
 6.217893905686410E-005  6.296105382863894E-005  6.375300639316970E-005  6.455492049465595E-005 
 6.536692143380749E-005  6.618913608742311E-005  6.702169292821523E-005  6.786472204488401E-005 
 6.871835516244422E-005  6.958272566280715E-005  7.045796860562203E-005  7.134422074937939E-005 
 7.224162057277973E-005  7.315030829637136E-005  7.407042590445974E-005  7.500211716729315E-005 
 7.594552766352695E-005  7.690080480297047E-005  7.786809784962042E-005  7.884755794498326E-005 
 7.983933813169161E-005  8.084359337741743E-005  8.186048059908596E-005  8.289015868739463E-005 
 8.393278853163953E-005  8.498853304485509E-005  8.605755718926942E-005  8.714002800207995E-005 
 8.823611462155365E-005  8.934598831345474E-005  9.046982249780563E-005  9.160779277598409E-005 
 9.276007695816122E-005  9.392685509108498E-005  9.510830948621240E-005  9.630462474819639E-005 
 9.751598780373058E-005  9.874258793075682E-005  9.998461678804070E-005  1.012422684451180E-004 
 1.025157394126188E-004  1.038052286729728E-004  1.051109377115002E-004  1.064330705478949E-004 
 1.077718337681025E-004  1.091274365565999E-004  1.105000907290808E-004  1.118900107655522E-004 
 1.132974138438478E-004  1.147225198735618E-004  1.161655515304109E-004  1.176267342910272E-004 
 1.191062964681899E-004  1.206044692464995E-004  1.221214867185006E-004  1.236575859212595E-004 
 1.252130068734019E-004  1.267879926126160E-004  1.283827892336281E-004  1.299976459266548E-004 
 1.316328150163398E-004  1.332885520011801E-004  1.349651155934482E-004  1.366627677596165E-004 
 1.383817737612899E-004  1.401224021966533E-004  1.418849250424412E-004  1.436696176964340E-004 
 1.454767590204901E-004  1.473066313841179E-004  1.491595207085971E-004  1.510357165116545E-004 
 1.529355119527012E-004  1.548592038786404E-004  1.568070928702492E-004  1.587794832891454E-004 
 1.607766833253449E-004  1.627990050454165E-004  1.648467644412438E-004  1.669202814793984E-004 
 1.690198801511361E-004  1.711458885230210E-004  1.732986387881866E-004  1.754784673182417E-004 
 1.776857147158290E-004  1.799207258678451E-004  1.821838499993295E-004  1.844754407280322E-004 
 1.867958561196670E-004  1.891454587438595E-004  1.915246157308003E-004  1.939336988286088E-004 
 1.963730844614203E-004  1.988431537882032E-004  2.013442927623150E-004  2.038768921918092E-004 
 2.064413478004990E-004  2.090380602897907E-004  2.116674354012941E-004  2.143298839802196E-004 
 2.170258220395747E-004  2.197556708251658E-004  2.225198568814196E-004  2.253188121180315E-004 
 2.281529738774515E-004  2.310227850032207E-004  2.339286939091661E-004  2.368711546494663E-004 
 2.398506269895988E-004  2.428675764781783E-004  2.459224745197004E-004  2.490157984481994E-004 
 2.521480316018322E-004  2.553196633984022E-004  2.585311894118302E-004  2.617831114495895E-004 
 2.650759376311147E-004  2.684101824671957E-004  2.717863669403722E-004  2.752050185863368E-004 
 2.786666715763645E-004  2.821718668007777E-004  2.857211519534614E-004  2.893150816174424E-004 
 2.929542173515420E-004  2.966391277781230E-004  3.003703886719362E-004  3.041485830500874E-004 
 3.079743012631359E-004  3.118481410873347E-004  3.157707078180388E-004  3.197426143642799E-004 
 3.237644813445364E-004  3.278369371837077E-004  3.319606182113027E-004  3.361361687608726E-004 
 3.403642412706858E-004  3.446454963856736E-004  3.489806030606592E-004  3.533702386648788E-004 
 3.578150890878274E-004  3.623158488464265E-004  3.668732211935448E-004  3.714879182278846E-004 
 3.761606610052450E-004  3.808921796511925E-004  3.856832134751416E-004  3.905345110858746E-004 
 3.954468305085141E-004  4.004209393029626E-004  4.054576146838403E-004  4.105576436419222E-004 
 4.157218230671089E-004  4.209509598729431E-004  4.262458711226882E-004  4.316073841570005E-004 
 4.370363367231994E-004  4.425335771061682E-004  4.480999642609021E-004  4.537363679467176E-004 
 4.594436688631589E-004  4.652227587876056E-004  4.710745407146153E-004  4.769999289970212E-004 
 4.829998494887959E-004  4.890752396897246E-004  4.952270488918860E-004  5.014562383279835E-004 
 5.077637813215415E-004  5.141506634389833E-004  5.206178826436357E-004  5.271664494516565E-004 
 5.337973870899320E-004  5.405117316559606E-004  5.473105322797390E-004  5.541948512876986E-004 
 5.611657643686902E-004  5.682243607420644E-004  5.753717433278670E-004  5.826090289191664E-004 
 5.899373483565624E-004  5.973578467048758E-004  6.048716834320704E-004  6.124800325904233E-004 
 6.201840829999677E-004  6.279850384342556E-004  6.358841178084444E-004  6.438825553697565E-004 
 6.519816008903355E-004  6.601825198625194E-004  6.684865936965840E-004  6.768951199209605E-004 
 6.854094123849776E-004  6.940308014641575E-004  7.027606342680815E-004  7.116002748508882E-004 
 7.205511044244023E-004  7.296145215739548E-004  7.387919424769166E-004  7.480848011239731E-004 
 7.574945495431963E-004  7.670226580269202E-004  7.766706153614798E-004  7.864399290598397E-004 
 7.963321255971382E-004  8.063487506492124E-004  8.164913693341048E-004  8.267615664566199E-004 
 8.371609467559535E-004  8.476911351564346E-004  8.583537770214252E-004  8.691505384104100E-004 
 8.800831063393214E-004  8.911531890441417E-004  9.023625162478149E-004  9.137128394305230E-004 
 9.252059321033555E-004  9.368435900854248E-004  9.486276317844683E-004  9.605598984809758E-004 
 9.726422546158957E-004  9.848765880819553E-004  9.972648105186493E-004  1.009808857610938E-003 
 1.022510689391700E-003  1.035372290547995E-003  1.048395670731168E-003  1.061582864870871E-003 
 1.074935933493017E-003  1.088456963041746E-003  1.102148066205432E-003  1.116011382246802E-003 
 1.130049077337189E-003  1.144263344895014E-003  1.158656405928499E-003  1.173230509382717E-003 
 1.187987932490981E-003  1.202930981130677E-003  1.218061990183557E-003  1.233383323900570E-003 
 1.248897376271280E-003  1.264606571397934E-003  1.280513363874230E-003  1.296620239168857E-003 
 1.312929714013848E-003  1.329444336797830E-003  1.346166687964213E-003  1.363099380414386E-003 
 1.380245059915998E-003  1.397606405516351E-003  1.415186129961019E-003  1.432986980117712E-003 
 1.451011737405482E-003  1.469263218229329E-003  1.487744274420262E-003  1.506457793680914E-003 
 1.525406700036741E-003  1.544593954292912E-003  1.564022554496942E-003  1.583695536407141E-003 
 1.603615973966957E-003  1.623786979785288E-003  1.644211705622830E-003  1.664893342884551E-003 
 1.685835123118348E-003  1.707040318519992E-003  1.728512242444405E-003  1.750254249923385E-003 
 1.772269738189836E-003  1.794562147208589E-003  1.817134960213909E-003  1.839991704253753E-003 
 1.863135950740878E-003  1.886571316010886E-003  1.910301461887279E-003  1.934330096253631E-003 
 1.958660973632949E-003  1.983297895774322E-003  2.008244712246962E-003  2.033505321041695E-003 
 2.059083669180041E-003  2.084983753330934E-003  2.111209620435216E-003  2.137765368337982E-003 
 2.164655146428867E-003  2.191883156290408E-003  2.219453652354540E-003  2.247370942567366E-003 
 2.275639389062277E-003  2.304263408841557E-003  2.333247474466528E-003  2.362596114756413E-003 
 2.392313915495968E-003  2.422405520152017E-003  2.452875630599015E-003  2.483729007853708E-003 
 2.514970472819064E-003  2.546604907037546E-003  2.578637253453857E-003  2.611072517187302E-003 
 2.643915766313825E-003  2.677172132657924E-003  2.710846812594498E-003  2.744945067860799E-003 
 2.779472226378590E-003  2.814433683086633E-003  2.849834900783668E-003  2.885681410981984E-003 
 2.921978814771728E-003  2.958732783696095E-003  2.995949060637504E-003  3.033633460714942E-003 
 3.071791872192592E-003  3.110430257399879E-003  3.149554653663107E-003  3.189171174248788E-003 
 3.229286009318866E-003  3.269905426897932E-003  3.311035773852623E-003  3.352683476883335E-003 
 3.394855043528399E-003  3.437557063180899E-003  3.480796208118286E-003  3.524579234544923E-003 
 3.568912983647774E-003  3.613804382665329E-003  3.659260445970018E-003  3.705288276164212E-003 
 3.751895065190022E-003  3.799088095453060E-003  3.846874740960318E-003  3.895262468472379E-003 
 3.944258838670111E-003  3.993871507336039E-003  4.044108226550587E-003  4.094976845903335E-003 
 4.146485313719550E-003  4.198641678302125E-003  4.251454089189133E-003  4.304930798427231E-003 
 4.359080161861033E-003  4.413910640438743E-003  4.469430801534193E-003  4.525649320285506E-003 
 4.582574980950624E-003  4.640216678279835E-003  4.698583418905622E-003  4.757684322749956E-003 
 4.817528624449303E-003  4.878125674797553E-003  4.939484942207121E-003  5.001616014188366E-003 
 5.064528598847697E-003  5.128232526404460E-003  5.192737750726940E-003  5.258054350887682E-003 
 5.324192532738346E-003  5.391162630504404E-003  5.458975108399883E-003  5.527640562262417E-003 
 5.597169721208880E-003  5.667573449311813E-003  5.738862747296969E-003  5.811048754262196E-003 
 5.884142749417944E-003  5.958156153849673E-003  6.033100532302404E-003  6.108987594987747E-003 
 6.185829199413638E-003  6.263637352237099E-003  6.342424211140322E-003  6.422202086730298E-003 
 6.502983444462398E-003  6.584780906588116E-003  6.667607254127325E-003  6.751475428865348E-003 
 6.836398535375115E-003  6.922389843064798E-003  7.009462788251168E-003  7.097630976259061E-003 
 7.186908183547241E-003  7.277308359860981E-003  7.368845630411748E-003  7.461534298084298E-003 
 7.555388845671528E-003  7.650423938137457E-003  7.746654424908630E-003  7.844095342194385E-003 
 7.942761915336294E-003  8.042669561187142E-003  8.143833890519871E-003  8.246270710466753E-003 
 8.349996026989314E-003  8.455026047379289E-003  8.561377182791046E-003  8.669066050805876E-003 
 8.778109478028498E-003  8.888524502716265E-003  9.000328377441425E-003  9.113538571786862E-003 
 9.228172775075786E-003  9.344248899135680E-003  9.461785081097088E-003  9.580799686227565E-003 
 9.701311310801297E-003  9.823338785004821E-003  9.946901175879239E-003  1.007201779029952E-002 
 1.019870817799121E-002  1.032699213458514E-002  1.045688970471053E-002  1.058842118512699E-002 
 1.072160712789594E-002  1.085646834359190E-002  1.099302590455419E-002  1.113130114817957E-002 
 1.127131568025616E-002  1.141309137833945E-002  1.155665039517073E-002  1.170201516213843E-002 
 1.184920839278316E-002  1.199825308634666E-002  1.214917253136554E-002  1.230199030931013E-002 
 1.245673029826913E-002  1.261341667668067E-002  1.277207392711013E-002  1.293272684007568E-002 
 1.309540051792184E-002  1.326012037874171E-002  1.342691216034869E-002  1.359580192429800E-002 
 1.376681605995884E-002  1.393998128863786E-002  1.411532466775434E-002  1.429287359506801E-002 
 1.447265581295998E-002  1.465469941276759E-002  1.483903283917365E-002  1.502568489465107E-002 
 1.521468474396328E-002  1.540606191872125E-002  1.559984632199790E-002  1.579606823300050E-002 
 1.599475831180184E-002  1.619594760413100E-002  1.639966754622422E-002  1.660594996973692E-002 
 1.681482710671746E-002  1.702633159464343E-002  1.724049648152143E-002  1.745735523105073E-002 
 1.767694172785214E-002  1.789929028276255E-002  1.812443563819602E-002  1.835241297357242E-002 
 1.858325791081421E-002  1.881700651991250E-002  1.905369532456302E-002  1.929336130787304E-002 
 1.953604191814007E-002  1.978177507470320E-002  2.003059917386809E-002  2.028255309490646E-002 
 2.053767620613107E-002  2.079600837104714E-002  2.105758995458099E-002  2.132246182938723E-002 
 2.159066538223521E-002  2.186224252047569E-002  2.213723567858910E-002  2.241568782481584E-002 
 2.269764246787028E-002  2.298314366373903E-002  2.327223602256480E-002  2.356496471561684E-002 
 2.386137548234898E-002  2.416151463754659E-002  2.446542907856331E-002  2.477316629264883E-002 
 2.508477436436899E-002  2.540030198311896E-002  2.571979845073111E-002  2.604331368917851E-002 
 2.637089824837537E-002  2.670260331407556E-002  2.703848071587045E-002  2.737858293528741E-002 
 2.772296311399016E-002  2.807167506208226E-002  2.842477326651511E-002  2.878231289960149E-002 
 2.914434982763651E-002  2.951094061962673E-002  2.988214255612923E-002  3.025801363820183E-002 
 3.063861259646581E-002  3.102399890028273E-002  3.141423276704663E-002  3.180937517159312E-002 
 3.220948785572687E-002  3.261463333786879E-002  3.302487492282474E-002  3.344027671167700E-002 
 3.386090361180021E-002  3.428682134700334E-002  3.471809646779901E-002  3.515479636180230E-002 
 3.559698926426011E-002  3.604474426871306E-002  3.649813133779163E-002  3.695722131414776E-002 
 3.742208593152428E-002  3.789279782596341E-002  3.836943054715632E-002  3.885205856993547E-002 
 3.934075730591130E-002  3.983560311525557E-002  4.033667331863276E-002  4.084404620928156E-002 
 4.135780106524844E-002  4.187801816177487E-002  4.240477878384057E-002  4.293816523886444E-002 
 4.347826086956522E-002  4.402515006698411E-002  4.457891828367084E-002  4.513965204703589E-002 
 4.570743897287064E-002  4.628236777903736E-002  4.686452829933181E-002  4.745401149751965E-002 
 4.805090948154992E-002  4.865531551794702E-002  4.926732404638375E-002  4.988703069443794E-002 
 5.051453229253407E-002  5.114992688907353E-002  5.179331376575474E-002  5.244479345308611E-002 
 5.310446774609435E-002  5.377243972022979E-002  5.444881374747240E-002  5.513369551264002E-002 
 5.582719202990180E-002  5.652941165949962E-002  5.724046412467922E-002  5.796046052883493E-002 
 5.868951337286974E-002  5.942773657277375E-002  6.017524547742398E-002  6.093215688660756E-002 
 6.169858906927209E-002  6.247466178200545E-002  6.326049628774788E-002  6.405621537473982E-002 
 6.486194337570743E-002  6.567780618729015E-002  6.650393128971217E-002  6.734044776670144E-002 
 6.818748632565953E-002  6.904517931808452E-002  6.991366076025148E-002  7.079306635415265E-002 
 7.168353350870123E-002  7.258520136120188E-002  7.349821079909095E-002  7.442270448195067E-002 
 7.535882686379984E-002  7.630672421566516E-002  7.726654464843646E-002  7.823843813600910E-002 
 7.922255653871782E-002  8.021905362706526E-002  8.122808510574879E-002  8.224980863799000E-002 
 8.328438387016943E-002  8.433197245677196E-002  8.539273808564558E-002  8.646684650357792E-002 
 8.755446554219466E-002  8.865576514418329E-002  8.977091738984729E-002  9.090009652399378E-002 
 9.204347898315977E-002  9.320124342318085E-002  9.437357074710621E-002  9.556064413346535E-002 
 9.676264906488996E-002  9.797977335709603E-002  9.921220718823061E-002  1.004601431285872E-001 
 1.017237761706953E-001  1.030033037597888E-001  1.042989258246564E-001  1.056108448088821E-001 
 1.069392657024761E-001  1.082843960739057E-001  1.096464461025282E-001  1.110256286114316E-001 
 1.124221591006890E-001  1.138362557810305E-001  1.152681396079395E-001  1.167180343161771E-001 
 1.181861664547411E-001  1.196727654222655E-001  1.211780635028631E-001  1.227022959024217E-001 
 1.242457007853550E-001  1.258085193118157E-001  1.273909956753785E-001  1.289933771411943E-001 
 1.306159140846275E-001  1.322588600303768E-001  1.339224716920883E-001  1.356070090124694E-001 
 1.373127352039030E-001  1.390399167895771E-001  1.407888236451288E-001  1.425597290408119E-001 
 1.443529096841979E-001  1.461686457634100E-001  1.480072209909051E-001  1.498689226478034E-001 
 1.517540416287757E-001  1.536628724874989E-001  1.555957134826774E-001  1.575528666246496E-001 
 1.595346377225760E-001  1.615413364322219E-001  1.635732763043441E-001  1.656307748336810E-001 
 1.677141535085641E-001  1.698237378611502E-001  1.719598575182860E-001  1.741228462530143E-001 
 1.763130420367251E-001  1.785307870919657E-001  1.807764279459135E-001  1.830503154845200E-001 
 1.853528050073401E-001  1.876842562830454E-001  1.900450336056416E-001  1.924355058513886E-001 
 1.948560465364376E-001  1.973070338751960E-001  1.997888508394213E-001  2.023018852180639E-001 
 2.048465296778585E-001  2.074231818246784E-001  2.100322442656645E-001  2.126741246721307E-001 
 2.153492358432658E-001  2.180579957706332E-001  2.208008277034818E-001  2.235781602148822E-001 
 2.263904272686892E-001  2.292380682873517E-001  2.321215282205730E-001  2.350412576148333E-001 
 2.379977126837915E-001  2.409913553795663E-001  2.440226534649198E-001  2.470920805863455E-001 
 2.502001163480753E-001  2.533472463870208E-001  2.565339624486530E-001  2.597607624638401E-001 
 2.630281506266500E-001  2.663366374731299E-001  2.696867399610814E-001  2.730789815508333E-001 
 2.765138922870360E-001  2.799920088814810E-001  2.835138747969614E-001  2.870800403321928E-001 
 2.906910627077944E-001  2.943475061533597E-001  2.980499419956166E-001  3.017989487476972E-001 
 3.055951121995348E-001  3.094390255093912E-001  3.133312892965420E-001  3.172725117351233E-001 
 3.212633086491587E-001  3.253043036087863E-001  3.293961280276891E-001  3.335394212617577E-001 
 3.377348307089904E-001  3.419830119106474E-001  3.462846286536861E-001  3.506403530744728E-001 
 3.550508657638107E-001  3.595168558732815E-001  3.640390212229246E-001  3.686180684102774E-001 
 3.732547129207781E-001  3.779496792395653E-001  3.827037009646788E-001  3.875175209216842E-001 
 3.923918912797448E-001  3.973275736691447E-001  4.023253393002996E-001  4.073859690842581E-001 
 4.125102537547186E-001  4.176989939915874E-001  4.229530005460820E-001  4.282730943674166E-001 
 4.336601067310751E-001  4.391148793686980E-001  4.446382645996091E-001  4.502311254639867E-001 
 4.558943358577204E-001  4.616287806689570E-001  4.674353559163633E-001  4.733149688891370E-001 
 4.792685382887654E-001  4.852969943725811E-001  4.914012790991126E-001  4.975823462752662E-001 
 5.038411617053653E-001  5.101787033420527E-001  5.165959614391041E-001  5.230939387061538E-001 
 5.296736504653684E-001  5.363361248100985E-001  5.430824027655136E-001  5.499135384512706E-001 
 5.568305992462192E-001  5.638346659551797E-001  5.709268329778273E-001  5.781082084796865E-001 
 5.853799145652917E-001  5.927430874535115E-001  6.001988776550911E-001  6.077484501524194E-001 
 6.153929845815569E-001  6.231336754165629E-001  6.309717321561272E-001  6.389083795125626E-001 
 6.469448576031673E-001  6.550824221439909E-001  6.633223446460513E-001  6.716659126140011E-001 
 6.801144297473118E-001  6.886692161439754E-001  6.973316085067686E-001  7.061029603521243E-001 
 7.149846422216114E-001  7.239780418960933E-001  7.330845646125673E-001  7.423056332837331E-001 
 7.516426887203332E-001  7.610971898562735E-001  7.706706139765932E-001  7.803644569482894E-001 
 7.901802334540464E-001  8.001194772289162E-001  8.101837412999572E-001  8.203745982289080E-001 
 8.306936403578986E-001  8.411424800582530E-001  8.517227499824357E-001  8.624361033191449E-001 
 8.732842140516377E-001  8.842687772192882E-001  8.953915091824364E-001  9.066541478905841E-001 
 9.180584531539403E-001  9.296062069184062E-001  9.412992135440033E-001  9.531393000868031E-001 
 9.651283165844202E-001  9.772681363450707E-001  9.895606562402925E-001  1.002007797001330E+000 
 1.014611503519249E+000  1.027373745148837E+000  1.040296516016311E+000  1.053381835330912E+000 
 1.066631747700407E+000  1.080048323450559E+000  1.093633658948626E+000  1.107389876930917E+000 
 1.121319126834481E+000  1.135423585132956E+000  1.149705455676644E+000  1.164166970036876E+000 
 1.178810387854692E+000  1.193637997193917E+000  1.208652114898682E+000  1.223855086955420E+000 
 1.239249288859449E+000  1.254837125986132E+000  1.270621033966737E+000  1.286603479068999E+000 
 1.302786958582479E+000  1.319174001208781E+000  1.335767167456649E+000  1.352569050042072E+000 
 1.369582274293390E+000  1.386809498561500E+000  1.404253414635249E+000  1.421916748162008E+000 
 1.439802259073579E+000  1.457912742017433E+000  1.476251026793372E+000  1.494819978795705E+000 
 1.513622499460959E+000  1.532661526721241E+000  1.551940035463300E+000  1.571461037993345E+000 
 1.591227584507741E+000  1.611242763569591E+000  1.631509702591348E+000  1.652031568323470E+000 
 1.672811567349223E+000  1.693852946585740E+000  1.715158993791329E+000  1.736733038079215E+000 
 1.758578450437714E+000  1.780698644256948E+000  1.803097075862209E+000  1.825777245054000E+000 
 1.848742695654904E+000  1.871997016063303E+000  1.895543839814066E+000  1.919386846146317E+000 
 1.943529760578298E+000  1.967976355489512E+000  1.992730450710153E+000  2.017795914117956E+000 
 2.043176662242580E+000  2.068876660877552E+000  2.094899925699949E+000  2.121250522897846E+000 
 2.147932569805660E+000  2.174950235547513E+000  2.202307741688638E+000  2.230009362895031E+000 
 2.258059427601369E+000  2.286462318687324E+000  2.315222474162422E+000  2.344344387859459E+000 
 2.373832610136706E+000  2.403691748588891E+000  2.433926468767137E+000  2.464541494907994E+000 
 2.495541610671576E+000  2.526931659889043E+000  2.558716547319455E+000  2.590901239416130E+000 
 2.623490765102698E+000  2.656490216558842E+000  2.689904750015995E+000  2.723739586562997E+000 
 2.758000012961884E+000  2.792691382473998E+000  2.827819115696392E+000  2.863388701408856E+000 
 2.899405697431531E+000  2.935875731493311E+000  2.972804502111227E+000  3.010197779480811E+000 
 3.048061406377733E+000  3.086401299070736E+000  3.125223448246047E+000  3.164533919943467E+000 
 3.204338856504167E+000  3.244644477530474E+000  3.285457080857682E+000  3.326783043538082E+000 
 3.368628822837433E+000  3.411000957243876E+000  3.453906067489623E+000  3.497350857585448E+000 
 3.541342115868180E+000  3.585886716061440E+000  3.630991618349621E+000  3.676663870465478E+000 
 3.722910608791333E+000  3.769739059474126E+000  3.817156539554562E+000  3.865170458110362E+000 
 3.913788317413992E+000  3.963017714104889E+000  4.012866340376430E+000  4.063341985177902E+000 
 4.114452535431485E+000  4.166205977264647E+000  4.218610397257976E+000  4.271673983708698E+000 
 4.325405027910172E+000  4.379811925447354E+000  4.434903177508682E+000  4.490687392214385E+000 
 4.547173285961488E+000  4.604369684785827E+000  4.662285525741068E+000  4.720929858295200E+000 
 4.780311845744505E+000  4.840440766645320E+000  4.901326016263884E+000  4.962977108044306E+000 
 5.025403675095116E+000  5.088615471694431E+000  5.152622374814058E+000  5.217434385662850E+000 
 5.283061631249346E+000  5.349514365964198E+000  5.416802973182411E+000  5.484937966885747E+000 
 5.553929993305610E+000  5.623789832586477E+000  5.694528400470374E+000  5.766156750002463E+000 
 5.838686073258066E+000  5.912127703091527E+000  5.986493114906901E+000  6.061793928451094E+000 
 6.138041909629435E+000  6.215248972344088E+000  6.293427180355701E+000  6.372588749168313E+000 
 6.452746047938113E+000  6.533911601406130E+000  6.616098091855201E+000  6.699318361091692E+000 
 6.783585412451961E+000  6.868912412834237E+000  6.955312694755943E+000  7.042799758436884E+000 
 7.131387273908782E+000  7.221089083151135E+000  7.311919202254150E+000  7.403891823608745E+000 
 7.497021318124101E+000  7.591322237473237E+000  7.686809316366628E+000  7.783497474854638E+000 
 7.881401820658755E+000  7.980537651532173E+000  8.080920457650189E+000  8.182565924030456E+000 
 8.285489932983912E+000  8.389708566596374E+000  8.495238109241345E+000  8.602095050124598E+000 
 8.710296085860515E+000  8.819858123081081E+000  8.930798281077537E+000  9.043133894475245E+000 
 9.156882515942380E+000  9.272061918932437E+000  9.388690100461483E+000  9.506785283920182E+000 
 9.626365921921181E+000  9.747450699182490E+000  9.870058535446875E+000  9.994208588438211E+000 
 1.011992025685488E+001  1.024721318340081E+001  1.037610725785478E+001  1.050662262017812E+001 
 1.063877966366176E+001  1.077259903811262E+001  1.090810165308020E+001  1.104530868112379E+001 
 1.118424156112065E+001  1.132492200161595E+001  1.146737198421475E+001  1.161161376701662E+001 
 1.175766988809361E+001  1.190556316901176E+001  1.205531671839713E+001  1.220695393554650E+001 
 1.236049851408352E+001  1.251597444566102E+001  1.267340602370957E+001  1.283281784723358E+001 
 1.299423482465481E+001  1.315768217770434E+001  1.332318544536368E+001  1.349077048785506E+001 
 1.366046349068236E+001  1.383229096872252E+001  1.400627977036855E+001  1.418245708172471E+001 
 1.436085043085430E+001  1.454148769208109E+001  1.472439709034468E+001  1.490960720561062E+001 
 1.509714697733631E+001  1.528704570899256E+001  1.547933307264257E+001  1.567403911357816E+001 
 1.587119425501430E+001  1.607082930284301E+001  1.627297545044662E+001  1.647766428357198E+001 
 1.668492778526575E+001  1.689479834087169E+001  1.710730874309115E+001  1.732249219710678E+001 
 1.754038232577109E+001  1.776101317486002E+001  1.798441921839256E+001  1.821063536401758E+001 
 1.843969695846803E+001  1.867163979308408E+001  1.890650010940559E+001  1.914431460483474E+001 
 1.938512043837033E+001  1.962895523641372E+001  1.987585709864821E+001  2.012586460399216E+001 
 2.037901681662683E+001  2.063535329210056E+001  2.089491408350910E+001  2.115773974775423E+001 
 2.142387135188073E+001  2.169335047949313E+001  2.196621923725345E+001  2.224252026146018E+001 
 2.252229672471052E+001  2.280559234264610E+001  2.309245138078353E+001  2.338291866143119E+001 
 2.367703957069259E+001  2.397486006555821E+001  2.427642668108635E+001  2.458178653767414E+001 
 2.489098734842052E+001  2.520407742658115E+001  2.552110569311778E+001  2.584212168434210E+001 
 2.616717555965575E+001  2.649631810938818E+001  2.682960076273233E+001  2.716707559578091E+001 
 2.750879533966322E+001  2.785481338878439E+001  2.820518380916865E+001  2.855996134690695E+001 
 2.891920143671138E+001  2.928296021057693E+001  2.965129450655198E+001  3.002426187761975E+001 
 3.040192060069069E+001  3.078432968570867E+001  3.117154888487130E+001  3.156363870196614E+001 
 3.196066040182495E+001  3.236267601989596E+001  3.276974837193745E+001  3.318194106383268E+001 
 3.359931850152826E+001  3.402194590109811E+001  3.444988929893314E+001  3.488321556205995E+001 
 3.532199239858887E+001  3.576628836829315E+001  3.621617289332212E+001  3.667171626904798E+001 
 3.713298967505007E+001  3.760006518623660E+001  3.807301578410635E+001  3.855191536815257E+001 
 3.903683876740949E+001  3.952786175214488E+001  4.002506104569918E+001  4.052851433647341E+001 
 4.103830029006868E+001  4.155449856157729E+001  4.207718980802942E+001  4.260645570099584E+001 
 4.314237893934897E+001  4.368504326218530E+001  4.423453346190918E+001  4.479093539748234E+001 
 4.535433600783931E+001  4.592482332547153E+001  4.650248649018322E+001  4.708741576301896E+001 
 4.767970254036776E+001  4.827943936824370E+001  4.888671995674611E+001  4.950163919470265E+001 
 5.012429316449516E+001  5.075477915707327E+001  5.139319568715617E+001  5.203964250862537E+001 
 5.269422063011211E+001  5.335703233077943E+001  5.402818117630417E+001  5.470777203505898E+001 