<UPF version="2.0.1">
  <PP_INFO>
    Generated using "atomic" code by A. Dal Corso  v.5.0.99 svn rev. 10869
    Author: TM
    Generation date: 10Apr2014
    Pseudopotential type: NC
    Element:  Y
    Functional: PBE

    Suggested minimum cutoff for wavefunctions:   0. Ry
    Suggested minimum cutoff for charge density:   0. Ry
    The Pseudo was generated with a Scalar-Relativistic Calculation
    L component and cutoff radius for Local Potential:  0   3.0500

    Valence configuration: 
    nl pn  l   occ       Rcut    Rcut US       E pseu
    5P  2  1  0.00      3.450      3.450    -0.105882
    4D  3  2  1.00      2.500      2.500    -0.184899
    5S  1  0  2.00      4.030      4.030    -0.301515
    Generation configuration:
    5P  2  1  0.00      3.450      3.450    -0.105882
    4D  3  2  1.00      2.500      2.500    -0.184899
    5S  1  0  2.00      3.050      3.050    -0.301515

    Pseudization used: troullier-martins
<PP_INPUTFILE>
 &amp;input

   title='Y',
   zed=39.,
   rel=1,
   config='[Kr] 5s2.0 5p0.0 4d1.0',
   iswitch=3,
   dft='PBE'
 /
 &amp;inputp

   pseudotype=2,
   file_pseudopw='Y.pbe-n-nc.UPF',
   author='TM',
   lloc=0,
   nlcc=.true.,
   tm=.true.
 /
3
5P  2  1  0.00  0.00  3.45  3.45  0.0
4D  3  2  1.00  0.00  2.50  2.50  0.0
5S  1  0  2.00  0.00  3.05  3.05  0.0
</PP_INPUTFILE>
  </PP_INFO>
  <!--                               -->
  <!-- END OF HUMAN READABLE SECTION -->
  <!--                               -->
  <PP_HEADER generated='Generated using "atomic" code by A. Dal Corso  v.5.0.99 svn rev. 10869'
             author="TM"
             date="10Apr2014"
             comment=""
             element=" Y"
             pseudo_type="NC"
             relativistic="scalar"
             is_ultrasoft="F"
             is_paw="F"
             is_coulomb="F"
             has_so="F"
             has_wfc="F"
             has_gipaw="F"
             paw_as_gipaw="F"
             core_correction="T"
             functional="PBE"
             z_valence="3.000000000000000E+000"
             total_psenergy="-4.959589635632886E+000"
             wfc_cutoff="0.000000000000000E+000"
             rho_cutoff="0.000000000000000E+000"
             l_max="2"
             l_max_rho="4"
             l_local="0"
             mesh_size="1223"
             number_of_wfc="3"
             number_of_proj="2"/>
  <PP_MESH dx="1.250000000000000E-002" mesh="1223" xmin="-7.000000000000000E+000" rmax="1.000000000000000E+002"
zmesh="3.900000000000000E+001">
    <PP_R type="real" size="1223" columns="4">
 2.338158886037221E-005  2.367569304279544E-005  2.397349660042518E-005  2.427504606567318E-005 
 2.458038855625692E-005  2.488957178256177E-005  2.520264405509586E-005  2.551965429203875E-005 
 2.584065202688488E-005  2.616568741618345E-005  2.649481124737531E-005  2.682807494672868E-005 
 2.716553058737462E-005  2.750723089744351E-005  2.785322926830405E-005  2.820357976290560E-005 
 2.855833712422573E-005  2.891755678382391E-005  2.928129487050276E-005  2.964960821907840E-005 
 3.002255437926088E-005  3.040019162464648E-005  3.078257896182310E-005  3.116977613959012E-005 
 3.156184365829439E-005  3.195884277928332E-005  3.236083553447729E-005  3.276788473606216E-005 
 3.318005398630379E-005  3.359740768748616E-005  3.402001105197414E-005  3.444793011240325E-005 
 3.488123173199728E-005  3.531998361501582E-005  3.576425431733330E-005  3.621411325715081E-005 
 3.666963072584294E-005  3.713087789894091E-005  3.759792684725393E-005  3.807085054813043E-005 
 3.854972289686083E-005  3.903461871822388E-005  3.952561377817821E-005  4.002278479570083E-005 
 4.052620945477480E-005  4.103596641652729E-005  4.155213533152069E-005  4.207479685219810E-005 
 4.260403264548548E-005  4.313992540555234E-005  4.368255886673266E-005  4.423201781660878E-005 
 4.478838810925948E-005  4.535175667867489E-005  4.592221155234025E-005  4.649984186499013E-005 
 4.708473787253608E-005  4.767699096616926E-005  4.827669368664045E-005  4.888393973871991E-005 
 4.949882400583870E-005  5.012144256491454E-005  5.075189270136402E-005  5.139027292430357E-005 
 5.203668298194190E-005  5.269122387716561E-005  5.335399788332126E-005  5.402510856019574E-005 
 5.470466077019764E-005  5.539276069474242E-005  5.608951585084321E-005  5.679503510791069E-005 
 5.750942870476419E-005  5.823280826685659E-005  5.896528682371631E-005  5.970697882660804E-005 
 6.045800016641623E-005  6.121846819175317E-005  6.198850172729495E-005  6.276822109234828E-005 
 6.355774811965021E-005  6.435720617440508E-005  6.516672017356047E-005  6.598641660532564E-005 
 6.681642354893585E-005  6.765687069466466E-005  6.850788936408848E-005  6.936961253060581E-005 
 7.024217484021457E-005  7.112571263255099E-005  7.202036396219264E-005  7.292626862022994E-005 
 7.384356815610879E-005  7.477240589974789E-005  7.571292698393453E-005  7.666527836700154E-005 
 7.762960885579014E-005  7.860606912890110E-005  7.959481176023868E-005  8.059599124285078E-005 
 8.160976401306838E-005  8.263628847494940E-005  8.367572502502945E-005  8.472823607738416E-005 
 8.579398608900698E-005  8.687314158550543E-005  8.796587118712140E-005  8.907234563507830E-005 
 9.019273781825970E-005  9.132722280022384E-005  9.247597784655720E-005  9.363918245257291E-005 
 9.481701837135723E-005  9.600966964216872E-005  9.721732261919507E-005  9.844016600067086E-005 
 9.967839085836232E-005  1.009321906674226E-004  1.022017613366228E-004  1.034873012389630E-004 
 1.047890112426684E-004  1.061070947425753E-004  1.074417576919123E-004  1.087932086344805E-004 
 1.101616587372395E-004  1.115473218233018E-004  1.129504144053437E-004  1.143711557194359E-004 
 1.158097677592991E-004  1.172664753109916E-004  1.187415059880319E-004  1.202350902669644E-004 
 1.217474615233712E-004  1.232788560683381E-004  1.248295131853785E-004  1.263996751678218E-004 
 1.279895873566722E-004  1.295994981789439E-004  1.312296591864782E-004  1.328803250952493E-004 
 1.345517538251637E-004  1.362442065403609E-004  1.379579476900210E-004  1.396932450496852E-004 
 1.414503697630967E-004  1.432295963845667E-004  1.450312029218746E-004  1.468554708797073E-004 
 1.487026853036447E-004  1.505731348246988E-004  1.524671117044127E-004  1.543849118805271E-004 
 1.563268350132215E-004  1.582931845319359E-004  1.602842676827836E-004  1.623003955765576E-004 
 1.643418832373432E-004  1.664090496517407E-004  1.685022178187080E-004  1.706217148000301E-004 
 1.727678717714222E-004  1.749410240742776E-004  1.771415112680649E-004  1.793696771833849E-004 
 1.816258699756955E-004  1.839104421797102E-004  1.862237507644844E-004  1.885661571891907E-004 
 1.909380274595984E-004  1.933397321852635E-004  1.957716466374349E-004  1.982341508076941E-004 
 2.007276294673275E-004  2.032524722274486E-004  2.058090735998759E-004  2.083978330587746E-004 
 2.110191551030777E-004  2.136734493196874E-004  2.163611304474752E-004  2.190826184420858E-004 
 2.218383385415547E-004  2.246287213327546E-004  2.274542028186733E-004  2.303152244865414E-004 
 2.332122333768160E-004  2.361456821530292E-004  2.391160291725212E-004  2.421237385580567E-004 
 2.451692802703463E-004  2.482531301814793E-004  2.513757701492777E-004  2.545376880925901E-004 
 2.577393780675279E-004  2.609813403446633E-004  2.642640814871987E-004  2.675881144301155E-004 
 2.709539585603245E-004  2.743621397978187E-004  2.778131906778500E-004  2.813076504341407E-004 
 2.848460650831360E-004  2.884289875093247E-004  2.920569775516251E-004  2.957306020908621E-004 
 2.994504351383449E-004  3.032170579255543E-004  3.070310589949647E-004  3.108930342920025E-004 
 3.148035872581650E-004  3.187633289253101E-004  3.227728780111281E-004  3.268328610158223E-004 
 3.309439123199967E-004  3.351066742837815E-004  3.393217973472036E-004  3.435899401318161E-004 
 3.479117695436137E-004  3.522879608772345E-004  3.567191979214774E-004  3.612061730661471E-004 
 3.657495874102373E-004  3.703501508714841E-004  3.750085822972877E-004  3.797256095770359E-004 
 3.845019697558389E-004  3.893384091496909E-004  3.942356834620880E-004  3.991945579021049E-004 
 4.042158073039612E-004  4.093002162480929E-004  4.144485791837403E-004  4.196617005530879E-004 
 4.249403949169553E-004  4.302854870820759E-004  4.356978122299765E-004  4.411782160474714E-004 
 4.467275548588080E-004  4.523466957594657E-004  4.580365167516419E-004  4.637979068814439E-004 
 4.696317663777995E-004  4.755390067931252E-004  4.815205511457541E-004  4.875773340641604E-004 
 4.937103019329982E-004  4.999204130409742E-004  5.062086377305841E-004  5.125759585497290E-004 
 5.190233704052408E-004  5.255518807183399E-004  5.321625095820447E-004  5.388562899205649E-004 
 5.456342676506968E-004  5.524975018452506E-004  5.594470648985326E-004  5.664840426939088E-004 
 5.736095347734770E-004  5.808246545098711E-004  5.881305292802290E-004  5.955283006423480E-004 
 6.030191245130540E-004  6.106041713488175E-004  6.182846263286378E-004  6.260616895392317E-004 
 6.339365761625486E-004  6.419105166656448E-004  6.499847569929473E-004  6.581605587609342E-004 
 6.664391994552654E-004  6.748219726303927E-004  6.833101881116791E-004  6.919051722000637E-004 
 7.006082678792967E-004  7.094208350257841E-004  7.183442506210724E-004  7.273799089670026E-004 
 7.365292219035752E-004  7.457936190295506E-004  7.551745479258279E-004  7.646734743816336E-004 
 7.742918826235513E-004  7.840312755474383E-004  7.938931749532536E-004  8.038791217828433E-004 
 8.139906763607168E-004  8.242294186378479E-004  8.345969484385495E-004  8.450948857104453E-004 
 8.557248707775918E-004  8.664885645967835E-004  8.773876490170777E-004  8.884238270425904E-004 
 8.995988230985907E-004  9.109143833009478E-004  9.223722757289659E-004  9.339742907016471E-004 
 9.457222410574362E-004  9.576179624374775E-004  9.696633135724380E-004  9.818601765729401E-004 
 9.942104572236413E-004  1.006716085281021E-003  1.019379014774906E-003  1.032201224313791E-003 
 1.045184717394006E-003  1.058331522712758E-003  1.071643694485126E-003  1.085123312765034E-003 
 1.098772483770261E-003  1.112593340211548E-003  1.126588041625831E-003  1.140758774713680E-003 
 1.155107753680970E-003  1.169637220584857E-003  1.184349445684106E-003  1.199246727793820E-003 
 1.214331394644639E-003  1.229605803246448E-003  1.245072340256666E-003  1.260733422353169E-003 
 1.276591496611896E-003  1.292649040889215E-003  1.308908564209088E-003  1.325372607155113E-003 
 1.342043742267497E-003  1.358924574445020E-003  1.376017741352055E-003  1.393325913830705E-003 
 1.410851796318135E-003  1.428598127269138E-003  1.446567679584035E-003  1.464763261041930E-003 
 1.483187714739448E-003  1.501843919534963E-003  1.520734790498429E-003  1.539863279366870E-003 
 1.559232375005589E-003  1.578845103875186E-003  1.598704530504448E-003  1.618813757969189E-003 
 1.639175928377117E-003  1.659794223358784E-003  1.680671864564727E-003  1.701812114168863E-003 
 1.723218275378199E-003  1.744893692948979E-003  1.766841753709297E-003  1.789065887088299E-003 
 1.811569565652042E-003  1.834356305646083E-003  1.857429667544909E-003  1.880793256608260E-003 
 1.904450723444459E-003  1.928405764580832E-003  1.952662123041290E-003  1.977223588931198E-003 
 2.002094000029569E-003  2.027277242388735E-003  2.052777250941554E-003  2.078598010116237E-003 
 2.104743554458944E-003  2.131217969264168E-003  2.158025391213087E-003  2.185170009019920E-003 
 2.212656064086423E-003  2.240487851164625E-003  2.268669719027880E-003  2.297206071150377E-003 
 2.326101366395194E-003  2.355360119710997E-003  2.384986902837526E-003  2.414986345019915E-003 
 2.445363133732042E-003  2.476122015408945E-003  2.507267796188463E-003  2.538805342662213E-003 
 2.570739582635994E-003  2.603075505899772E-003  2.635818165007344E-003  2.668972676065811E-003 
 2.702544219534983E-003  2.736538041036826E-003  2.770959452175111E-003  2.805813831365359E-003 
 2.841106624675230E-003  2.876843346675480E-003  2.913029581301635E-003  2.949670982726472E-003 
 2.986773276243513E-003  3.024342259161605E-003  3.062383801710760E-003  3.100903847959402E-003 
 3.139908416743127E-003  3.179403602605161E-003  3.219395576748649E-003  3.259890588000912E-003 
 3.300894963789852E-003  3.342415111132608E-003  3.384457517636674E-003  3.427028752513603E-003 
 3.470135467605454E-003  3.513784398424166E-003  3.557982365203982E-003  3.602736273967133E-003 
 3.648053117602915E-003  3.693939976960340E-003  3.740404021954549E-003  3.787452512687099E-003 
 3.835092800580388E-003  3.883332329526325E-003  3.932178637049448E-003  3.981639355484692E-003 
 4.031722213169940E-003  4.082435035653599E-003  4.133785746917356E-003  4.185782370614318E-003 
 4.238433031322732E-003  4.291745955815450E-003  4.345729474345390E-003  4.400392021947150E-003 
 4.455742139755004E-003  4.511788476337475E-003  4.568539789048680E-003  4.626004945396688E-003 
 4.684192924429097E-003  4.743112818136007E-003  4.802773832870693E-003  4.863185290788085E-003 
 4.924356631301390E-003  4.986297412557017E-003  5.049017312928053E-003  5.112526132526543E-003 
 5.176833794734756E-003  5.241950347755746E-003  5.307885966183405E-003  5.374650952592252E-003 
 5.442255739147259E-003  5.510710889233863E-003  5.580027099108539E-003  5.650215199570103E-003 
 5.721286157652047E-003  5.793251078336176E-003  5.866121206287757E-003  5.939907927612536E-003 
 6.014622771635842E-003  6.090277412704055E-003  6.166883672008774E-003  6.244453519433866E-003 
 6.322999075425810E-003  6.402532612887531E-003  6.483066559096063E-003  6.564613497644361E-003 
 6.647186170407477E-003  6.730797479533523E-003  6.815460489459661E-003  6.901188428953433E-003 
 6.987994693179811E-003  7.075892845794185E-003  7.164896621061729E-003  7.255019926003412E-003 
 7.346276842568977E-003  7.438681629837318E-003  7.532248726244434E-003  7.626992751839506E-003 
 7.722928510569290E-003  7.820070992591263E-003  7.918435376615894E-003  8.018037032278305E-003 
 8.118891522539830E-003  8.221014606119766E-003  8.324422239957685E-003  8.429130581706773E-003 
 8.535155992258453E-003  8.642515038298833E-003  8.751224494897280E-003  8.861301348127551E-003 
 8.972762797721934E-003  9.085626259758688E-003  9.199909369383379E-003  9.315629983564397E-003 
 9.432806183883136E-003  9.551456279359308E-003  9.671598809311720E-003  9.793252546255106E-003 
 9.916436498833373E-003  1.004116991478972E-002  1.016747228397418E-002  1.029536334138889E-002 
 1.042486307027178E-002  1.055599170521894E-002  1.068876973534637E-002  1.082321790749142E-002 
 1.095935722945453E-002  1.109720897328173E-002  1.123679467858845E-002  1.137813615592513E-002 
 1.152125549018517E-002  1.166617504405574E-002  1.181291746151195E-002  1.196150567135509E-002 
 1.211196289079525E-002  1.226431262907908E-002  1.241857869116314E-002  1.257478518143350E-002 
 1.273295650747205E-002  1.289311738387028E-002  1.305529283609101E-002  1.321950820437857E-002 
 1.338578914771837E-002  1.355416164784609E-002  1.372465201330744E-002  1.389728688356890E-002 
 1.407209323318017E-002  1.424909837598902E-002  1.442832996940913E-002  1.460981601874162E-002 
 1.479358488155094E-002  1.497966527209580E-002  1.516808626581578E-002  1.535887730387451E-002 
 1.555206819775983E-002  1.574768913394200E-002  1.594577067859027E-002  1.614634378234898E-002 
 1.634943978517369E-002  1.655509042122800E-002  1.676332782384224E-002  1.697418453053421E-002 
 1.718769348809332E-002  1.740388805772859E-002  1.762280202028134E-002  1.784446958150365E-002 
 1.806892537740291E-002  1.829620447965392E-002  1.852634240107879E-002  1.875937510119594E-002 
 1.899533899183892E-002  1.923427094284570E-002  1.947620828781971E-002  1.972118882996336E-002 
 1.996925084798474E-002  2.022043310207889E-002  2.047477483998403E-002  2.073231580311418E-002 
 2.099309623276878E-002  2.125715687642052E-002  2.152453899408224E-002  2.179528436475381E-002 
 2.206943529295021E-002  2.234703461531176E-002  2.262812570729732E-002  2.291275248996194E-002 
 2.320095943681948E-002  2.349279158079175E-002  2.378829452124496E-002  2.408751443111476E-002 
 2.439049806412088E-002  2.469729276207236E-002  2.500794646226495E-002  2.532250770497134E-002 
 2.564102564102564E-002  2.596355003950345E-002  2.629013129549819E-002  2.662082043799553E-002 
 2.695566913784679E-002  2.729472971584255E-002  2.763805515088799E-002  2.798569908828082E-002 
 2.833771584809354E-002  2.869416043366106E-002  2.905508854017503E-002  2.942055656338647E-002 
 2.979062160841752E-002  3.016534149868439E-002  3.054477478493228E-002  3.092898075438412E-002 
 3.131801944000436E-002  3.171195162987911E-002  3.211083887671449E-002  3.251474350745437E-002 
 3.292372863301901E-002  3.333785815816644E-002  3.375719679147748E-002  3.418181005546676E-002 
 3.461176429682062E-002  3.504712669676401E-002  3.548796528155773E-002  3.593434893312753E-002 
 3.638634739982713E-002  3.684403130733655E-002  3.730747216969747E-002  3.777674240048758E-002 
 3.825191532413515E-002  3.873306518737624E-002  3.922026717085590E-002  3.971359740087521E-002 
 4.021313296128639E-002  4.071895190553702E-002  4.123113326886625E-002  4.174975708065413E-002 
 4.227490437692637E-002  4.280665721301649E-002  4.334509867638697E-002  4.389031289961193E-002 
 4.444238507352299E-002  4.500140146052047E-002  4.556744940805228E-002  4.614061736226178E-002 
 4.672099488180795E-002  4.730867265185900E-002  4.790374249826211E-002  4.850629740189154E-002 
 4.911643151317684E-002  4.973424016681424E-002  5.035981989666278E-002  5.099326845082800E-002 
 5.163468480693531E-002  5.228416918759528E-002  5.294182307606379E-002  5.360774923209890E-002 
 5.428205170801730E-002  5.496483586495281E-002  5.565620838931905E-002  5.635627730947956E-002 
 5.706515201262741E-002  5.778294326187714E-002  5.850976321357190E-002  5.924572543480781E-002 
 5.999094492117928E-002  6.074553811474722E-002  6.150962292223328E-002  6.228331873344330E-002 
 6.306674643992181E-002  6.386002845384185E-002  6.466328872713205E-002  6.547665277084427E-002 
 6.630024767476531E-002  6.713420212727440E-002  6.797864643545148E-002  6.883371254543776E-002 
 6.969953406305243E-002  7.057624627466942E-002  7.146398616835517E-002  7.236289245527434E-002 
 7.327310559136323E-002  7.419476779927593E-002  7.512802309060782E-002  7.607301728839663E-002 
 7.702989804990852E-002  7.799881488970938E-002  7.897991920302644E-002  7.997336428940501E-002 
 8.097930537666075E-002  8.199789964513525E-002  8.302930625225546E-002  8.407368635740188E-002 
 8.513120314709106E-002  8.620202186047257E-002  8.728630981514918E-002  8.838423643331993E-002 
 8.949597326825234E-002  9.062169403108906E-002  9.176157461798924E-002  9.291579313761386E-002 
 9.408452993895504E-002  9.526796763951549E-002  9.646629115384396E-002  9.767968772242724E-002 
 9.890834694094804E-002  1.001524607899091E-001  1.014122236646302E-001  1.026878324056238E-001 
 1.039794863293507E-001  1.052873872593644E-001  1.066117395578464E-001  1.079527501575374E-001 
 1.093106285940724E-001  1.106855870387191E-001  1.120778403315322E-001  1.134876060149215E-001 
 1.149151043676427E-001  1.163605584392181E-001  1.178241940847869E-001  1.193062400003966E-001 
 1.208069277587370E-001  1.223264918453231E-001  1.238651696951355E-001  1.254232017297181E-001 
 1.270008313947465E-001  1.285983051980657E-001  1.302158727482072E-001  1.318537867933921E-001 
 1.335123032610218E-001  1.351916812976690E-001  1.368921833095687E-001  1.386140750036197E-001 
 1.403576254289027E-001  1.421231070187186E-001  1.439107956331578E-001  1.457209706022038E-001 
 1.475539147693777E-001  1.494099145359354E-001  1.512892599056158E-001  1.531922445299570E-001 
 1.551191657541782E-001  1.570703246636407E-001  1.590460261308941E-001  1.610465788633119E-001 
 1.630722954513290E-001  1.651234924172837E-001  1.672004902648747E-001  1.693036135292419E-001 
 1.714331908276736E-001  1.735895549109557E-001  1.757730427153636E-001  1.779839954153086E-001 
 1.802227584766487E-001  1.824896817106666E-001  1.847851193287299E-001  1.871094299976368E-001 
 1.894629768956577E-001  1.918461277692843E-001  1.942592549906884E-001  1.967027356159084E-001 
 1.991769514437635E-001  2.016822890755101E-001  2.042191399752508E-001  2.067879005310994E-001 
 2.093889721171191E-001  2.120227611560378E-001  2.146896791827504E-001  2.173901429086252E-001 
 2.201245742866127E-001  2.228934005771795E-001  2.256970544150670E-001  2.285359738768907E-001 
 2.314106025495931E-001  2.343213895997520E-001  2.372687898437664E-001  2.402532638189214E-001 
 2.432752778553468E-001  2.463353041488849E-001  2.494338208348689E-001  2.525713120628354E-001 
 2.557482680721725E-001  2.589651852687193E-001  2.622225663023336E-001  2.655209201454281E-001 
 2.688607621725018E-001  2.722426142406669E-001  2.756670047711886E-001  2.791344688320551E-001 
 2.826455482215796E-001  2.862007915530606E-001  2.898007543405023E-001  2.934459990854134E-001 
 2.971370953647026E-001  3.008746199196721E-001  3.046591567461384E-001  3.084912971856805E-001 
 3.123716400180378E-001  3.163007915546735E-001  3.202793657335080E-001  3.243079842148519E-001 
 3.283872764785395E-001  3.325178799222855E-001  3.367004399612828E-001  3.409356101290458E-001 
 3.452240521795310E-001  3.495664361905324E-001  3.539634406683870E-001  3.584157526539909E-001 
 3.629240678301489E-001  3.674890906302807E-001  3.721115343484853E-001  3.767921212509985E-001 
 3.815315826890474E-001  3.863306592131229E-001  3.911901006886969E-001  3.961106664133853E-001 
 4.010931252355942E-001  4.061382556746521E-001  4.112468460424532E-001  4.164196945666374E-001 
 4.216576095153093E-001  4.269614093233370E-001  4.323319227202320E-001  4.377699888596375E-001 
 4.432764574504529E-001  4.488521888895972E-001  4.544980543964524E-001  4.602149361489912E-001 
 4.660037274216171E-001  4.718653327247455E-001  4.778006679461286E-001  4.838106604939714E-001 
 4.898962494418376E-001  4.960583856753799E-001  5.022980320409236E-001  5.086161634959060E-001 
 5.150137672612223E-001  5.214918429754777E-001  5.280514028511804E-001  5.346934718329086E-001 
 5.414190877574520E-001  5.482293015159831E-001  5.551251772182584E-001  5.621077923588839E-001 
 5.691782379856837E-001  5.763376188701699E-001  5.835870536801726E-001  5.909276751546307E-001 
 5.983606302805826E-001  6.058870804723910E-001  6.135082017532090E-001  6.212251849387430E-001 
 6.290392358233172E-001  6.369515753682782E-001  6.449634398927794E-001  6.530760812669512E-001 
 6.612907671075144E-001  6.696087809758460E-001  6.780314225785334E-001  6.865600079704656E-001 
 6.951958697604592E-001  7.039403573194897E-001  7.127948369915306E-001  7.217606923070424E-001 
 7.308393241991620E-001  7.400321512225906E-001  7.493406097752550E-001  7.587661543227431E-001 
 7.683102576255647E-001  7.779744109692810E-001  7.877601243975112E-001  7.976689269478887E-001 
 8.077023668909735E-001  8.178620119721667E-001  8.281494496566852E-001  8.385662873775942E-001 
 8.491141527869823E-001  8.597946940102812E-001  8.706095799037834E-001  8.815605003154161E-001 
 8.926491663487705E-001  9.038773106304754E-001  9.152466875809208E-001  9.267590736883830E-001 
 9.384162677866164E-001  9.502200913359127E-001  9.621723887077178E-001  9.742750274728155E-001 
 9.865298986931317E-001  9.989389172172313E-001  1.011504021979501E+000  1.024227176303127E+000 
 1.037110368206857E+000  1.050155610715636E+000  1.063364942175149E+000  1.076740426570308E+000 
 1.090284153847764E+000  1.103998240242461E+000  1.117884828608295E+000  1.131946088752956E+000 
 1.146184217776945E+000  1.160601440416891E+000  1.175200009393167E+000  1.189982205761871E+000 
 1.204950339271265E+000  1.220106748722659E+000  1.235453802335867E+000  1.250993898119243E+000 
 1.266729464244364E+000  1.282662959425457E+000  1.298796873303556E+000  1.315133726835531E+000 
 1.331676072687987E+000  1.348426495636114E+000  1.365387612967582E+000  1.382562074891476E+000 
 1.399952564952416E+000  1.417561800449859E+000  1.435392532862671E+000  1.453447548279074E+000 
 1.471729667831955E+000  1.490241748139692E+000  1.508986681752499E+000  1.527967397604384E+000 
 1.547186861470822E+000  1.566648076432138E+000  1.586354083342766E+000  1.606307961306382E+000 
 1.626512828157009E+000  1.646971840946204E+000  1.667688196436334E+000  1.688665131600095E+000 
 1.709905924126288E+000  1.731413892931952E+000  1.753192398680980E+000  1.775244844309196E+000 
 1.797574675556099E+000  1.820185381503255E+000  1.843080495119463E+000  1.866263593812814E+000 
 1.889738299989637E+000  1.913508281620536E+000  1.937577252813505E+000  1.961948974394254E+000 
 1.986627254493871E+000  2.011615949143824E+000  2.036918962878496E+000  2.062540249345264E+000 
 2.088483811922260E+000  2.114753704343926E+000  2.141354031334392E+000  2.168288949248872E+000 
 2.195562666723094E+000  2.223179445330895E+000  2.251143600250126E+000  2.279459500936880E+000 
 2.308131571808251E+000  2.337164292933652E+000  2.366562200734818E+000  2.396329888694660E+000 
 2.426472008074978E+000  2.456993268643253E+000  2.487898439408550E+000  2.519192349366668E+000 
 2.550879888254717E+000  2.582966007315106E+000  2.615455720069223E+000  2.648354103100791E+000 
 2.681666296849083E+000  2.715397506412155E+000  2.749553002360117E+000  2.784138121558708E+000 
 2.819158268003169E+000  2.854618913662625E+000  2.890525599335111E+000  2.926883935513309E+000 
 2.963699603261222E+000  3.000978355101844E+000  3.038726015915983E+000  3.076948483852450E+000 
 3.115651731249614E+000  3.154841805568629E+000  3.194524830338345E+000  3.234707006112107E+000 
 3.275394611436642E+000  3.316594003833051E+000  3.358311620790221E+000  3.400553980770684E+000 
 3.443327684229116E+000  3.486639414643721E+000  3.530495939560480E+000  3.574904111650645E+000 
 3.619870869781462E+000  3.665403240100360E+000  3.711508337132850E+000  3.758193364894133E+000 
 3.805465618014785E+000  3.853332482880538E+000  3.901801438786400E+000  3.950880059105357E+000 
 4.000576012471670E+000  4.050897063979166E+000  4.101851076394531E+000  4.153446011385855E+000 
 4.205689930766717E+000  4.258590997755798E+000  4.312157478252447E+000  4.366397742128235E+000 
 4.421320264534726E+000  4.476933627227806E+000  4.533246519908524E+000  4.590267741580941E+000 
 4.648006201926958E+000  4.706470922698461E+000  4.765671039127034E+000  4.825615801351295E+000 
 4.886314575862308E+000  4.947776846967092E+000  5.010012218270537E+000  5.073030414176045E+000 
 5.136841281404918E+000  5.201454790534997E+000  5.266881037558548E+000  5.333130245459760E+000 
 5.400212765812173E+000  5.468139080396052E+000  5.536919802836259E+000  5.606565680260620E+000 
 5.677087594979158E+000  5.748496566184546E+000  5.820803751673798E+000  5.894020449591765E+000 
 5.968158100196469E+000  6.043228287646631E+000  6.119242741811791E+000  6.196213340105046E+000 
 6.274152109338984E+000  6.353071227604880E+000  6.432983026175502E+000  6.513899991431981E+000 
 6.595834766814742E+000  6.678800154799148E+000  6.762809118895878E+000  6.847874785676465E+000 
 6.934010446824436E+000  7.021229561212065E+000  7.109545757003436E+000  7.198972833783834E+000 
 7.289524764715921E+000  7.381215698723163E+000  7.474059962700517E+000  7.568072063753136E+000 
 7.663266691463091E+000  7.759658720184611E+000  7.857263211368323E+000  7.956095415914524E+000 
 8.056170776556261E+000  8.157504930272259E+000  8.260113710730167E+000  8.364013150760726E+000 
 8.469219484862792E+000  8.575749151740130E+000  8.683618796869938E+000  8.792845275103701E+000 
 8.903445653300899E+000  9.015437212995611E+000  9.128837453096899E+000  9.243664092623018E+000 
 9.359935073469972E+000  9.477668563215108E+000  9.596882957955696E+000  9.717596885183475E+000 
 9.839829206695185E+000  9.963599021539713E+000  1.008892566900247E+001  1.021582873162708E+001 
 1.034432803827526E+001  1.047444366722514E+001  1.060619594930843E+001  1.073960547108729E+001 
 1.087469307807089E+001  1.101147987797266E+001  1.114998724400843E+001  1.129023681823587E+001 
 1.143225051493635E+001  1.157605052403886E+001  1.172165931458741E+001  1.186909963825178E+001 
 1.201839453288249E+001  1.216956732611059E+001  1.232264163899255E+001  1.247764138970121E+001 
 1.263459079726299E+001  1.279351438534210E+001  1.295443698607255E+001  1.311738374393806E+001 
 1.328238011970108E+001  1.344945189438104E+001  1.361862517328259E+001  1.378992639007481E+001 
 1.396338231092127E+001  1.413902003866253E+001  1.431686701705092E+001  1.449695103503860E+001 
 1.467930023111979E+001  1.486394309772734E+001  1.505090848568484E+001  1.524022560871457E+001 
 1.543192404800211E+001  1.562603375681867E+001  1.582258506520112E+001  1.602160868469131E+001 
 1.622313571313472E+001  1.642719763953951E+001  1.663382634899690E+001  1.684305412766307E+001 
 1.705491366780415E+001  1.726943807290434E+001  1.748666086283835E+001  1.770661597910908E+001 
 1.792933779015092E+001  1.815486109669999E+001  1.838322113723179E+001  1.861445359346721E+001 
 1.884859459594805E+001  1.908568072968223E+001  1.932574903986055E+001  1.956883703764492E+001 
 1.981498270602949E+001  2.006422450577581E+001  2.031660138142210E+001  2.057215276736869E+001 
 2.083091859403959E+001  2.109293929412160E+001  2.135825580888228E+001  2.162690959456676E+001 
 2.189894262887568E+001  2.217439741752415E+001  2.245331700088323E+001  2.273574496070536E+001 
 2.302172542693381E+001  2.331130308459826E+001  2.360452318079695E+001  2.390143153176637E+001 
 2.420207453004051E+001  2.450649915169943E+001  2.481475296370965E+001  2.512688413135652E+001 
 2.544294142576990E+001  2.576297423154518E+001  2.608703255445926E+001  2.641516702928446E+001 
 2.674742892770010E+001  2.708387016630372E+001  2.742454331472344E+001  2.776950160383170E+001 
 2.811879893406304E+001  2.847248988383603E+001  2.883062971808104E+001  2.919327439687592E+001 
 2.956048058418945E+001  2.993230565673552E+001  3.030880771293826E+001  3.069004558200983E+001 
 3.107607883314304E+001  3.146696778481864E+001  3.186277351423066E+001  3.226355786682966E+001 