Rg    ONCVPSP-4.0.1  r_core=   1.10118   1.20456   1.20456   1.15516
111.0000     51.0000      230612    zatom,zion,pspd
8      11   3     4   600     0    pspcod,pspxc,lmax,lloc,mmax,r2well
5.99000000  3.50000000  0.00000000    rchrg fchrg qchrg
3     2     2     2     0    nproj
1     1           extension_switch
0                        -1.7044445407580E+01  1.2508117410728E+01 -9.3132024826842E-01
1  0.0000000000000E+00  2.3932256176806E-10  7.9654940421392E-09 -4.6064124764600E-08
2  1.0000000000000E-02  8.1001922156412E-02  2.1067759499890E-01 -7.5022242184933E-03
3  2.0000000000000E-02  1.6182020645829E-01  4.1896761279810E-01 -1.5282457686617E-02
4  3.0000000000000E-02  2.4227142851671E-01  6.2251084457344E-01 -2.3610598514309E-02
5  4.0000000000000E-02  3.2217259612224E-01  8.1900454882521E-01 -3.2740604297686E-02
6  5.0000000000000E-02  4.0134137840312E-01  1.0062300084916E+00 -4.2903213144808E-02
7  6.0000000000000E-02  4.7959635051616E-01  1.1820792682646E+00 -5.4299458139893E-02
8  7.0000000000000E-02  5.5675725878942E-01  1.3445807668208E+00 -6.7095181522041E-02
9  8.0000000000000E-02  6.3264531099654E-01  1.4919235707110E+00 -8.1416708790413E-02
10  9.0000000000000E-02  7.0708349612294E-01  1.6224799094552E+00 -9.7347789918876E-02
11  1.0000000000000E-01  7.7989693757340E-01  1.7348257065312E+00 -1.1492785755712E-01
12  1.1000000000000E-01  8.5091328325856E-01  1.8277588001001E+00 -1.3415159341799E-01
13  1.2000000000000E-01  9.1996313537515E-01  1.9003145521143E+00 -1.5496973697362E-01
14  1.3000000000000E-01  9.8688052195562E-01  1.9517785563996E+00 -1.7729101799259E-01
15  1.4000000000000E-01  1.0515034114048E+00  1.9816961766573E+00 -2.0098504900449E-01
16  1.5000000000000E-01  1.1136742702660E+00  1.9898786750154E+00 -2.2588597775816E-01
17  1.6000000000000E-01  1.1732406633748E+00  1.9764057312830E+00 -2.5179667495025E-01
18  1.7000000000000E-01  1.2300558943777E+00  1.9416242024621E+00 -2.7849322015319E-01
19  1.8000000000000E-01  1.2839796833387E+00  1.8861430308718E+00 -3.0572944954172E-01
20  1.9000000000000E-01  1.3348788768457E+00  1.8108242764473E+00 -3.3324134259674E-01
21  2.0000000000000E-01  1.3826281847035E+00  1.7167703228935E+00 -3.6075105067104E-01
22  2.1000000000000E-01  1.4271109359864E+00  1.6053073864390E+00 -3.8797040671284E-01
23  2.2000000000000E-01  1.4682198459627E+00  1.4779655376033E+00 -4.1460380056589E-01
24  2.3000000000000E-01  1.5058577842418E+00  1.3364555280137E+00 -4.4035035563440E-01
25  2.4000000000000E-01  1.5399385334627E+00  1.1826427930414E+00 -4.6490539750489E-01
26  2.5000000000000E-01  1.5703875269947E+00  1.0185190739698E+00 -4.8796126033228E-01
27  2.6000000000000E-01  1.5971425534812E+00  8.4617216771305E-01 -5.0920752935124E-01
28  2.7000000000000E-01  1.6201544156721E+00  6.6775436511847E-01 -5.2833086479330E-01
29  2.8000000000000E-01  1.6393875308718E+00  4.8545017828350E-01 -5.4501459106237E-01
30  2.9000000000000E-01  1.6548204605154E+00  3.0144398120095E-01 -5.5893826293185E-01
31  3.0000000000000E-01  1.6664463568688E+00  1.1788819505038E-01 -5.6977743598099E-01
32  3.1000000000000E-01  1.6742733156443E+00 -6.3127361168037E-02 -5.7720387032325E-01
33  3.2000000000000E-01  1.6783246244156E+00 -2.3960436230606E-01 -5.8088638440698E-01
34  3.3000000000000E-01  1.6786388980899E+00 -4.0966256416787E-01 -5.8049254954604E-01
35  3.4000000000000E-01  1.6752700943200E+00 -5.7156360050161E-01 -5.7569137682907E-01
36  3.5000000000000E-01  1.6682874035816E+00 -7.2373157965525E-01 -5.6615709782814E-01
37  3.6000000000000E-01  1.6577750106491E+00 -8.6477015748640E-01 -5.5157408135824E-01
38  3.7000000000000E-01  1.6438317263372E+00 -9.9347585850245E-01 -5.3164286322364E-01
39  3.8000000000000E-01  1.6265704905633E+00 -1.1088475178739E+00 -5.0608719760880E-01
40  3.9000000000000E-01  1.6061177499842E+00 -1.2100918193971E+00 -4.7466197094661E-01
41  4.0000000000000E-01  1.5826127156004E+00 -1.2966250050964E+00 -4.3716175521713E-01
42  4.1000000000000E-01  1.5562065077469E+00 -1.3680709274294E+00 -3.9342972108628E-01
43  4.2000000000000E-01  1.5270611977514E+00 -1.4242557017107E+00 -3.4336658521491E-01
44  4.3000000000000E-01  1.4953487571800E+00 -1.4651992914493E+00 -2.8693923315583E-01
45  4.4000000000000E-01  1.4612499269803E+00 -1.4911044203767E+00 -2.2418864165218E-01
46  4.5000000000000E-01  1.4249530199277E+00 -1.5023432501531E+00 -1.5523672331314E-01
47  4.6000000000000E-01  1.3866526705654E+00 -1.4994422908944E+00 -8.0291733274409E-02
48  4.7000000000000E-01  1.3465485472933E+00 -1.4830660222893E+00  3.4808856645313E-04
49  4.8000000000000E-01  1.3048440414001E+00 -1.4539996964317E+00  8.6292915753367E-02
50  4.9000000000000E-01  1.2617449476605E+00 -1.4131317705519E+00  1.7706198485724E-01
51  5.0000000000000E-01  1.2174581506539E+00 -1.3614363802427E+00  2.7208663011201E-01
52  5.1000000000000E-01  1.1721903302340E+00 -1.2999562137791E+00  3.7071575039441E-01
53  5.2000000000000E-01  1.1261466986270E+00 -1.2297860884505E+00  4.7222366397121E-01
54  5.3000000000000E-01  1.0795297804997E+00 -1.1520574635512E+00  5.7582021302007E-01
55  5.4000000000000E-01  1.0325382460741E+00 -1.0679240551201E+00  6.8066288908218E-01
56  5.5000000000000E-01  9.8536580601207E-01 -9.7854864805367E-01  7.8587066642227E-01
57  5.6000000000000E-01  9.3820017540544E-01 -8.8509113512798E-01  8.9053915664160E-01
58  5.7000000000000E-01  8.9122211283686E-01 -7.8869775280300E-01  9.9375663831030E-01
59  5.8000000000000E-01  8.4460453915636E-01 -6.9049143310240E-01  1.0946204727918E+00
60  5.9000000000000E-01  7.9851173939634E-01 -5.9156315153532E-01  1.1922533940602E+00
61  6.0000000000000E-01  7.5309865014666E-01 -4.9296412450139E-01  1.2858191575721E+00
62  6.1000000000000E-01  7.0851023375677E-01 -3.9569869678132E-01  1.3745370516659E+00
63  6.2000000000000E-01  6.6488093993420E-01 -3.0071776072635E-01  1.4576948140969E+00
64  6.3000000000000E-01  6.2233425467235E-01 -2.0891256306354E-01  1.5346595548206E+00
65  6.4000000000000E-01  5.8098233595919E-01 -1.2110878157611E-01  1.6048863617518E+00
66  6.5000000000000E-01  5.4092573537795E-01 -3.8060790412275E-02  1.6679243559033E+00
67  6.6000000000000E-01  5.0225320448922E-01  3.9553923005837E-02  1.7234200623085E+00
68  6.7000000000000E-01  4.6504158475330E-01  1.1114017742033E-01  1.7711180691894E+00
69  6.8000000000000E-01  4.2935577968054E-01  1.7619029065949E-01  1.8108590553581E+00
70  6.9000000000000E-01  3.9524880785038E-01  2.3428893391673E-01  1.8425753700935E+00
71  7.0000000000000E-01  3.6276193538295E-01  2.8511749077962E-01  1.8662844460525E+00
72  7.1000000000000E-01  3.3192488634593E-01  3.2845772774743E-01  1.8820804097957E+00
73  7.2000000000000E-01  3.0275612940571E-01  3.6419455683723E-01  1.8901243223295E+00
74  7.3000000000000E-01  2.7526323876003E-01  3.9231765744635E-01  1.8906335305091E+00
75  7.4000000000000E-01  2.4944332700300E-01  4.1292172549428E-01  1.8838706368074E+00
76  7.5000000000000E-01  2.2528354706287E-01  4.2620513386606E-01  1.8701325984390E+00
77  7.6000000000000E-01  2.0276165971858E-01  4.3246681942434E-01  1.8497404467345E+00
78  7.7000000000000E-01  1.8184666245131E-01  4.3210125762844E-01  1.8230300746893E+00
79  7.8000000000000E-01  1.6249947454096E-01  4.2559144460967E-01  1.7903444765085E+00
80  7.9000000000000E-01  1.4467367240157E-01  4.1349987615383E-01  1.7520277404903E+00
81  8.0000000000000E-01  1.2831626819788E-01  3.9645759056070E-01  1.7084209993779E+00
82  8.1000000000000E-01  1.1336852383924E-01  3.7515142433922E-01  1.6598604347619E+00
83  8.2000000000000E-01  9.9766791550624E-02  3.5030971235712E-01  1.6066773191924E+00
84  8.3000000000000E-01  8.7443371421428E-02  3.2268674334997E-01  1.5491999666541E+00
85  8.4000000000000E-01  7.6327375677332E-02  2.9304635353950E-01  1.4877573544027E+00
86  8.5000000000000E-01  6.6345588953429E-02  2.6214510159839E-01  1.4226840821384E+00
87  8.6000000000000E-01  5.7423313607731E-02  2.3071551375869E-01  1.3543262530164E+00
88  8.7000000000000E-01  4.9485189135290E-02  1.9944991544609E-01  1.2830477993973E+00
89  8.8000000000000E-01  4.2455975048450E-02  1.6898537307270E-01  1.2092367380007E+00
90  8.9000000000000E-01  3.6261287190877E-02  1.3989025498912E-01  1.1333108267923E+00
91  9.0000000000000E-01  3.0828278353516E-02  1.1265288345890E-01  1.0557221108778E+00
92  9.1000000000000E-01  2.6086255248029E-02  8.7672690223773E-02  9.7695988710546E-01
93  9.2000000000000E-01  2.1967225344106E-02  6.5254208128730E-02  8.9755168592179E-01
94  9.3000000000000E-01  1.8406368755233E-02  4.5604132687603E-02  8.1806196201861E-01
95  9.4000000000000E-01  1.5342432216220E-02  2.8831573618909E-02  7.3908829901479E-01
96  9.5000000000000E-01  1.2718044178056E-02  1.4951491287644E-02  6.6125506337959E-01
97  9.6000000000000E-01  1.0479952088269E-02  3.8911812598153E-03  5.8520458378262E-01
98  9.7000000000000E-01  8.5791849572420E-03 -4.5004630257227E-03  5.1158607806151E-01
99  9.8000000000000E-01  6.9711462627494E-03 -1.0441308858013E-02  4.4104269482350E-01
100  9.9000000000000E-01  5.6156440433801E-03 -1.4202483660068E-02  3.7419717385149E-01
101  1.0000000000000E+00  4.4768666110621E-03 -1.6093640578925E-02  3.1163675288669E-01
102  1.0100000000000E+00  3.5233136102831E-03 -1.6447702357038E-02  2.5389805211299E-01
103  1.0200000000000E+00  2.7276931157143E-03 -1.5605859164949E-02  2.0145274679463E-01
104  1.0300000000000E+00  2.0667975146252E-03 -1.3903646824588E-02  1.5469489697490E-01
105  1.0400000000000E+00  1.5213589693913E-03 -1.1658784646903E-02  1.1393072212406E-01
106  1.0500000000000E+00  1.0746649050840E-03 -9.1504899681821E-03  7.9365144972376E-02
107  1.0600000000000E+00  7.0566396058784E-04 -6.5399712474515E-03  5.1053509780799E-02
108  1.0700000000000E+00  4.1131366658514E-04 -4.0807945076232E-03  2.9030085734807E-02
109  1.0800000000000E+00  1.9344813994586E-04 -2.0277301106893E-03  1.3265394239148E-02
110  1.0900000000000E+00  5.4896943987925E-05 -6.0163134858850E-04  3.6436474148516E-03
111  1.1000000000000E+00  1.3495030013807E-06 -1.5317771159385E-05  8.5669894640391E-05
112  1.1100000000000E+00  2.7021982205647E-07 -3.0757766480827E-06  1.7411049253484E-05
113  1.1200000000000E+00 -2.3905169626811E-08  2.6767507307212E-07 -1.5650087463999E-06
114  1.13  0.  0.  0.
115  1.14  0.  0.  0.
116  1.15  0.  0.  0.
117  1.16  0.  0.  0.
118  1.17  0.  0.  0.
119  1.18  0.  0.  0.
120  1.19  0.  0.  0.
121  1.20  0.  0.  0.
122  1.21  0.  0.  0.
123  1.22  0.  0.  0.
124  1.23  0.  0.  0.
125  1.24  0.  0.  0.
126  1.25  0.  0.  0.
127  1.26  0.  0.  0.
128  1.27  0.  0.  0.
129  1.28  0.  0.  0.
130  1.29  0.  0.  0.
131  1.30  0.  0.  0.
132  1.31  0.  0.  0.
133  1.32  0.  0.  0.
134  1.33  0.  0.  0.
135  1.34  0.  0.  0.
136  1.35  0.  0.  0.
137  1.36  0.  0.  0.
138  1.37  0.  0.  0.
139  1.38  0.  0.  0.
140  1.39  0.  0.  0.
141  1.40  0.  0.  0.
142  1.41  0.  0.  0.
143  1.42  0.  0.  0.
144  1.43  0.  0.  0.
145  1.44  0.  0.  0.
146  1.45  0.  0.  0.
147  1.46  0.  0.  0.
148  1.47  0.  0.  0.
149  1.48  0.  0.  0.
150  1.49  0.  0.  0.
151  1.50  0.  0.  0.
152  1.51  0.  0.  0.
153  1.52  0.  0.  0.
154  1.53  0.  0.  0.
155  1.54  0.  0.  0.
156  1.55  0.  0.  0.
157  1.56  0.  0.  0.
158  1.57  0.  0.  0.
159  1.58  0.  0.  0.
160  1.59  0.  0.  0.
161  1.60  0.  0.  0.
162  1.61  0.  0.  0.
163  1.62  0.  0.  0.
164  1.63  0.  0.  0.
165  1.64  0.  0.  0.
166  1.65  0.  0.  0.
167  1.66  0.  0.  0.
168  1.67  0.  0.  0.
169  1.68  0.  0.  0.
170  1.69  0.  0.  0.
171  1.70  0.  0.  0.
172  1.71  0.  0.  0.
173  1.72  0.  0.  0.
174  1.73  0.  0.  0.
175  1.74  0.  0.  0.
176  1.75  0.  0.  0.
177  1.76  0.  0.  0.
178  1.77  0.  0.  0.
179  1.78  0.  0.  0.
180  1.79  0.  0.  0.
181  1.80  0.  0.  0.
182  1.81  0.  0.  0.
183  1.82  0.  0.  0.
184  1.83  0.  0.  0.
185  1.84  0.  0.  0.
186  1.85  0.  0.  0.
187  1.86  0.  0.  0.
188  1.87  0.  0.  0.
189  1.88  0.  0.  0.
190  1.89  0.  0.  0.
191  1.90  0.  0.  0.
192  1.91  0.  0.  0.
193  1.92  0.  0.  0.
194  1.93  0.  0.  0.
195  1.94  0.  0.  0.
196  1.95  0.  0.  0.
197  1.96  0.  0.  0.
198  1.97  0.  0.  0.
199  1.98  0.  0.  0.
200  1.99  0.  0.  0.
201  2.00  0.  0.  0.
202  2.01  0.  0.  0.
203  2.02  0.  0.  0.
204  2.03  0.  0.  0.
205  2.04  0.  0.  0.
206  2.05  0.  0.  0.
207  2.06  0.  0.  0.
208  2.07  0.  0.  0.
209  2.08  0.  0.  0.
210  2.09  0.  0.  0.
211  2.10  0.  0.  0.
212  2.11  0.  0.  0.
213  2.12  0.  0.  0.
214  2.13  0.  0.  0.
215  2.14  0.  0.  0.
216  2.15  0.  0.  0.
217  2.16  0.  0.  0.
218  2.17  0.  0.  0.
219  2.18  0.  0.  0.
220  2.19  0.  0.  0.
221  2.20  0.  0.  0.
222  2.21  0.  0.  0.
223  2.22  0.  0.  0.
224  2.23  0.  0.  0.
225  2.24  0.  0.  0.
226  2.25  0.  0.  0.
227  2.26  0.  0.  0.
228  2.27  0.  0.  0.
229  2.28  0.  0.  0.
230  2.29  0.  0.  0.
231  2.30  0.  0.  0.
232  2.31  0.  0.  0.
233  2.32  0.  0.  0.
234  2.33  0.  0.  0.
235  2.34  0.  0.  0.
236  2.35  0.  0.  0.
237  2.36  0.  0.  0.
238  2.37  0.  0.  0.
239  2.38  0.  0.  0.
240  2.39  0.  0.  0.
241  2.40  0.  0.  0.
242  2.41  0.  0.  0.
243  2.42  0.  0.  0.
244  2.43  0.  0.  0.
245  2.44  0.  0.  0.
246  2.45  0.  0.  0.
247  2.46  0.  0.  0.
248  2.47  0.  0.  0.
249  2.48  0.  0.  0.
250  2.49  0.  0.  0.
251  2.50  0.  0.  0.
252  2.51  0.  0.  0.
253  2.52  0.  0.  0.
254  2.53  0.  0.  0.
255  2.54  0.  0.  0.
256  2.55  0.  0.  0.
257  2.56  0.  0.  0.
258  2.57  0.  0.  0.
259  2.58  0.  0.  0.
260  2.59  0.  0.  0.
261  2.60  0.  0.  0.
262  2.61  0.  0.  0.
263  2.62  0.  0.  0.
264  2.63  0.  0.  0.
265  2.64  0.  0.  0.
266  2.65  0.  0.  0.
267  2.66  0.  0.  0.
268  2.67  0.  0.  0.
269  2.68  0.  0.  0.
270  2.69  0.  0.  0.
271  2.70  0.  0.  0.
272  2.71  0.  0.  0.
273  2.72  0.  0.  0.
274  2.73  0.  0.  0.
275  2.74  0.  0.  0.
276  2.75  0.  0.  0.
277  2.76  0.  0.  0.
278  2.77  0.  0.  0.
279  2.78  0.  0.  0.
280  2.79  0.  0.  0.
281  2.80  0.  0.  0.
282  2.81  0.  0.  0.
283  2.82  0.  0.  0.
284  2.83  0.  0.  0.
285  2.84  0.  0.  0.
286  2.85  0.  0.  0.
287  2.86  0.  0.  0.
288  2.87  0.  0.  0.
289  2.88  0.  0.  0.
290  2.89  0.  0.  0.
291  2.90  0.  0.  0.
292  2.91  0.  0.  0.
293  2.92  0.  0.  0.
294  2.93  0.  0.  0.
295  2.94  0.  0.  0.
296  2.95  0.  0.  0.
297  2.96  0.  0.  0.
298  2.97  0.  0.  0.
299  2.98  0.  0.  0.
300  2.99  0.  0.  0.
301  3.00  0.  0.  0.
302  3.01  0.  0.  0.
303  3.02  0.  0.  0.
304  3.03  0.  0.  0.
305  3.04  0.  0.  0.
306  3.05  0.  0.  0.
307  3.06  0.  0.  0.
308  3.07  0.  0.  0.
309  3.08  0.  0.  0.
310  3.09  0.  0.  0.
311  3.10  0.  0.  0.
312  3.11  0.  0.  0.
313  3.12  0.  0.  0.
314  3.13  0.  0.  0.
315  3.14  0.  0.  0.
316  3.15  0.  0.  0.
317  3.16  0.  0.  0.
318  3.17  0.  0.  0.
319  3.18  0.  0.  0.
320  3.19  0.  0.  0.
321  3.20  0.  0.  0.
322  3.21  0.  0.  0.
323  3.22  0.  0.  0.
324  3.23  0.  0.  0.
325  3.24  0.  0.  0.
326  3.25  0.  0.  0.
327  3.26  0.  0.  0.
328  3.27  0.  0.  0.
329  3.28  0.  0.  0.
330  3.29  0.  0.  0.
331  3.30  0.  0.  0.
332  3.31  0.  0.  0.
333  3.32  0.  0.  0.
334  3.33  0.  0.  0.
335  3.34  0.  0.  0.
336  3.35  0.  0.  0.
337  3.36  0.  0.  0.
338  3.37  0.  0.  0.
339  3.38  0.  0.  0.
340  3.39  0.  0.  0.
341  3.40  0.  0.  0.
342  3.41  0.  0.  0.
343  3.42  0.  0.  0.
344  3.43  0.  0.  0.
345  3.44  0.  0.  0.
346  3.45  0.  0.  0.
347  3.46  0.  0.  0.
348  3.47  0.  0.  0.
349  3.48  0.  0.  0.
350  3.49  0.  0.  0.
351  3.50  0.  0.  0.
352  3.51  0.  0.  0.
353  3.52  0.  0.  0.
354  3.53  0.  0.  0.
355  3.54  0.  0.  0.
356  3.55  0.  0.  0.
357  3.56  0.  0.  0.
358  3.57  0.  0.  0.
359  3.58  0.  0.  0.
360  3.59  0.  0.  0.
361  3.60  0.  0.  0.
362  3.61  0.  0.  0.
363  3.62  0.  0.  0.
364  3.63  0.  0.  0.
365  3.64  0.  0.  0.
366  3.65  0.  0.  0.
367  3.66  0.  0.  0.
368  3.67  0.  0.  0.
369  3.68  0.  0.  0.
370  3.69  0.  0.  0.
371  3.70  0.  0.  0.
372  3.71  0.  0.  0.
373  3.72  0.  0.  0.
374  3.73  0.  0.  0.
375  3.74  0.  0.  0.
376  3.75  0.  0.  0.
377  3.76  0.  0.  0.
378  3.77  0.  0.  0.
379  3.78  0.  0.  0.
380  3.79  0.  0.  0.
381  3.80  0.  0.  0.
382  3.81  0.  0.  0.
383  3.82  0.  0.  0.
384  3.83  0.  0.  0.
385  3.84  0.  0.  0.
386  3.85  0.  0.  0.
387  3.86  0.  0.  0.
388  3.87  0.  0.  0.
389  3.88  0.  0.  0.
390  3.89  0.  0.  0.
391  3.90  0.  0.  0.
392  3.91  0.  0.  0.
393  3.92  0.  0.  0.
394  3.93  0.  0.  0.
395  3.94  0.  0.  0.
396  3.95  0.  0.  0.
397  3.96  0.  0.  0.
398  3.97  0.  0.  0.
399  3.98  0.  0.  0.
400  3.99  0.  0.  0.
401  4.00  0.  0.  0.
402  4.01  0.  0.  0.
403  4.02  0.  0.  0.
404  4.03  0.  0.  0.
405  4.04  0.  0.  0.
406  4.05  0.  0.  0.
407  4.06  0.  0.  0.
408  4.07  0.  0.  0.
409  4.08  0.  0.  0.
410  4.09  0.  0.  0.
411  4.10  0.  0.  0.
412  4.11  0.  0.  0.
413  4.12  0.  0.  0.
414  4.13  0.  0.  0.
415  4.14  0.  0.  0.
416  4.15  0.  0.  0.
417  4.16  0.  0.  0.
418  4.17  0.  0.  0.
419  4.18  0.  0.  0.
420  4.19  0.  0.  0.
421  4.20  0.  0.  0.
422  4.21  0.  0.  0.
423  4.22  0.  0.  0.
424  4.23  0.  0.  0.
425  4.24  0.  0.  0.
426  4.25  0.  0.  0.
427  4.26  0.  0.  0.
428  4.27  0.  0.  0.
429  4.28  0.  0.  0.
430  4.29  0.  0.  0.
431  4.30  0.  0.  0.
432  4.31  0.  0.  0.
433  4.32  0.  0.  0.
434  4.33  0.  0.  0.
435  4.34  0.  0.  0.
436  4.35  0.  0.  0.
437  4.36  0.  0.  0.
438  4.37  0.  0.  0.
439  4.38  0.  0.  0.
440  4.39  0.  0.  0.
441  4.40  0.  0.  0.
442  4.41  0.  0.  0.
443  4.42  0.  0.  0.
444  4.43  0.  0.  0.
445  4.44  0.  0.  0.
446  4.45  0.  0.  0.
447  4.46  0.  0.  0.
448  4.47  0.  0.  0.
449  4.48  0.  0.  0.
450  4.49  0.  0.  0.
451  4.50  0.  0.  0.
452  4.51  0.  0.  0.
453  4.52  0.  0.  0.
454  4.53  0.  0.  0.
455  4.54  0.  0.  0.
456  4.55  0.  0.  0.
457  4.56  0.  0.  0.
458  4.57  0.  0.  0.
459  4.58  0.  0.  0.
460  4.59  0.  0.  0.
461  4.60  0.  0.  0.
462  4.61  0.  0.  0.
463  4.62  0.  0.  0.
464  4.63  0.  0.  0.
465  4.64  0.  0.  0.
466  4.65  0.  0.  0.
467  4.66  0.  0.  0.
468  4.67  0.  0.  0.
469  4.68  0.  0.  0.
470  4.69  0.  0.  0.
471  4.70  0.  0.  0.
472  4.71  0.  0.  0.
473  4.72  0.  0.  0.
474  4.73  0.  0.  0.
475  4.74  0.  0.  0.
476  4.75  0.  0.  0.
477  4.76  0.  0.  0.
478  4.77  0.  0.  0.
479  4.78  0.  0.  0.
480  4.79  0.  0.  0.
481  4.80  0.  0.  0.
482  4.81  0.  0.  0.
483  4.82  0.  0.  0.
484  4.83  0.  0.  0.
485  4.84  0.  0.  0.
486  4.85  0.  0.  0.
487  4.86  0.  0.  0.
488  4.87  0.  0.  0.
489  4.88  0.  0.  0.
490  4.89  0.  0.  0.
491  4.90  0.  0.  0.
492  4.91  0.  0.  0.
493  4.92  0.  0.  0.
494  4.93  0.  0.  0.
495  4.94  0.  0.  0.
496  4.95  0.  0.  0.
497  4.96  0.  0.  0.
498  4.97  0.  0.  0.
499  4.98  0.  0.  0.
500  4.99  0.  0.  0.
501  5.00  0.  0.  0.
502  5.01  0.  0.  0.
503  5.02  0.  0.  0.
504  5.03  0.  0.  0.
505  5.04  0.  0.  0.
506  5.05  0.  0.  0.
507  5.06  0.  0.  0.
508  5.07  0.  0.  0.
509  5.08  0.  0.  0.
510  5.09  0.  0.  0.
511  5.10  0.  0.  0.
512  5.11  0.  0.  0.
513  5.12  0.  0.  0.
514  5.13  0.  0.  0.
515  5.14  0.  0.  0.
516  5.15  0.  0.  0.
517  5.16  0.  0.  0.
518  5.17  0.  0.  0.
519  5.18  0.  0.  0.
520  5.19  0.  0.  0.
521  5.20  0.  0.  0.
522  5.21  0.  0.  0.
523  5.22  0.  0.  0.
524  5.23  0.  0.  0.
525  5.24  0.  0.  0.
526  5.25  0.  0.  0.
527  5.26  0.  0.  0.
528  5.27  0.  0.  0.
529  5.28  0.  0.  0.
530  5.29  0.  0.  0.
531  5.30  0.  0.  0.
532  5.31  0.  0.  0.
533  5.32  0.  0.  0.
534  5.33  0.  0.  0.
535  5.34  0.  0.  0.
536  5.35  0.  0.  0.
537  5.36  0.  0.  0.
538  5.37  0.  0.  0.
539  5.38  0.  0.  0.
540  5.39  0.  0.  0.
541  5.40  0.  0.  0.
542  5.41  0.  0.  0.
543  5.42  0.  0.  0.
544  5.43  0.  0.  0.
545  5.44  0.  0.  0.
546  5.45  0.  0.  0.
547  5.46  0.  0.  0.
548  5.47  0.  0.  0.
549  5.48  0.  0.  0.
550  5.49  0.  0.  0.
551  5.50  0.  0.  0.
552  5.51  0.  0.  0.
553  5.52  0.  0.  0.
554  5.53  0.  0.  0.
555  5.54  0.  0.  0.
556  5.55  0.  0.  0.
557  5.56  0.  0.  0.
558  5.57  0.  0.  0.
559  5.58  0.  0.  0.
560  5.59  0.  0.  0.
561  5.60  0.  0.  0.
562  5.61  0.  0.  0.
563  5.62  0.  0.  0.
564  5.63  0.  0.  0.
565  5.64  0.  0.  0.
566  5.65  0.  0.  0.
567  5.66  0.  0.  0.
568  5.67  0.  0.  0.
569  5.68  0.  0.  0.
570  5.69  0.  0.  0.
571  5.70  0.  0.  0.
572  5.71  0.  0.  0.
573  5.72  0.  0.  0.
574  5.73  0.  0.  0.
575  5.74  0.  0.  0.
576  5.75  0.  0.  0.
577  5.76  0.  0.  0.
578  5.77  0.  0.  0.
579  5.78  0.  0.  0.
580  5.79  0.  0.  0.
581  5.80  0.  0.  0.
582  5.81  0.  0.  0.
583  5.82  0.  0.  0.
584  5.83  0.  0.  0.
585  5.84  0.  0.  0.
586  5.85  0.  0.  0.
587  5.86  0.  0.  0.
588  5.87  0.  0.  0.
589  5.88  0.  0.  0.
590  5.89  0.  0.  0.
591  5.90  0.  0.  0.
592  5.91  0.  0.  0.
593  5.92  0.  0.  0.
594  5.93  0.  0.  0.
595  5.94  0.  0.  0.
596  5.95  0.  0.  0.
597  5.96  0.  0.  0.
598  5.97  0.  0.  0.
599  5.98  0.  0.  0.
600  5.99  0.  0.  0.
1                        -1.4165422478647E+01 -1.3933412723597E+00
1  0.0000000000000E+00  5.1435550818546E-09 -1.7014822578654E-08
2  1.0000000000000E-02  3.2711958847337E-03 -3.9486507063533E-03
3  2.0000000000000E-02  1.3058749620620E-02 -1.5741690177166E-02
4  3.0000000000000E-02  2.9284808357876E-02 -3.5221061724381E-02
5  4.0000000000000E-02  5.1820444148372E-02 -6.2125598635134E-02
6  5.0000000000000E-02  8.0486884099285E-02 -9.6094381840893E-02
7  6.0000000000000E-02  1.1505721263294E-01 -1.3667137326203E-01
8  7.0000000000000E-02  1.5525852622652E-01 -1.8331125875899E-01
9  8.0000000000000E-02  2.0077451586169E-01 -2.3538641760641E-01
10  9.0000000000000E-02  2.5124844760859E-01 -2.9219491974131E-01
11  1.0000000000000E-01  3.0628650736452E-01 -3.5296943796725E-01
12  1.1000000000000E-01  3.6546147182305E-01 -4.1688695004254E-01
13  1.2000000000000E-01  4.2831666431455E-01 -4.8307909532674E-01
14  1.3000000000000E-01  4.9437015127628E-01 -5.5064304255413E-01
15  1.4000000000000E-01  5.6311913281382E-01 -6.1865271945551E-01
16  1.5000000000000E-01  6.3404447912967E-01 -6.8617025142931E-01
17  1.6000000000000E-01  7.0661536353581E-01 -7.5225745529826E-01
18  1.7000000000000E-01  7.8029394233988E-01 -8.1598723536323E-01
19  1.8000000000000E-01  8.5454003209735E-01 -8.7645473242978E-01
20  1.9000000000000E-01  9.2881573554045E-01 -9.3278808214085E-01
21  2.0000000000000E-01  1.0025899689090E+00 -9.8415864667186E-01
22  2.1000000000000E-01  1.0753428453872E+00 -1.0297905934703E+00
23  2.2000000000000E-01  1.1465698718569E+00 -1.0689697060570E+00
24  2.3000000000000E-01  1.2157859191689E+00 -1.1010513247336E+00
25  2.4000000000000E-01  1.2825289295533E+00 -1.1254673291201E+00
26  2.5000000000000E-01  1.3463633285911E+00 -1.1417320895236E+00
27  2.6000000000000E-01  1.4068831132788E+00 -1.1494473299465E+00
28  2.7000000000000E-01  1.4637145920885E+00 -1.1483058618100E+00
29  2.8000000000000E-01  1.5165187574748E+00 -1.1380941639209E+00
30  2.9000000000000E-01  1.5649932759551E+00 -1.1186938005797E+00
31  3.0000000000000E-01  1.6088740856164E+00 -1.0900816857586E+00
32  3.1000000000000E-01  1.6479365956166E+00 -1.0523292167216E+00
33  3.2000000000000E-01  1.6819964868905E+00 -1.0056003150862E+00
34  3.3000000000000E-01  1.7109101177740E+00 -9.5014842694202E-01
35  3.4000000000000E-01  1.7345745425802E+00 -8.8631254605005E-01
36  3.5000000000000E-01  1.7529271552290E+00 -8.1451233520693E-01
37  3.6000000000000E-01  1.7659449738199E+00 -7.3524243044086E-01
38  3.7000000000000E-01  1.7736435854936E+00 -6.4906602071673E-01
39  3.8000000000000E-01  1.7760757740209E+00 -5.5660780220556E-01
40  3.9000000000000E-01  1.7733298552626E+00 -4.5854641088557E-01
41  4.0000000000000E-01  1.7655277479383E+00 -3.5560644028696E-01
42  4.1000000000000E-01  1.7528228090116E+00 -2.4855015259827E-01
43  4.2000000000000E-01  1.7353974644402E+00 -1.3816899117277E-01
44  4.3000000000000E-01  1.7134606670461E+00 -2.5275000790116E-02
45  4.4000000000000E-01  1.6872452138470E+00  8.9307741058652E-02
46  4.5000000000000E-01  1.6570049553575E+00  2.0475158296148E-01
47  4.6000000000000E-01  1.6230119291454E+00  3.2023355506154E-01
48  4.7000000000000E-01  1.5855534493260E+00  4.3494333433498E-01
49  4.8000000000000E-01  1.5449291827312E+00  5.4809084012637E-01
50  4.9000000000000E-01  1.5014482412263E+00  6.5891338841006E-01
51  5.0000000000000E-01  1.4554263180931E+00  7.6668234176386E-01
52  5.1000000000000E-01  1.4071828946041E+00  8.7070920090191E-01
53  5.2000000000000E-01  1.3570385408966E+00  9.7035109265808E-01
54  5.3000000000000E-01  1.3053123330695E+00  1.0650156183888E+00
55  5.4000000000000E-01  1.2523194061017E+00  1.1541650357364E+00
56  5.5000000000000E-01  1.1983686597640E+00  1.2373197554307E+00
57  5.6000000000000E-01  1.1437606322135E+00  1.3140611432031E+00
58  5.7000000000000E-01  1.0887855534365E+00  1.3840336248362E+00
59  5.8000000000000E-01  1.0337215882008E+00  1.4469460998071E+00
60  5.9000000000000E-01  9.7883327569690E-01  1.5025726758365E+00
61  6.0000000000000E-01  9.2437017063729E-01  1.5507527428830E+00
62  6.1000000000000E-01  8.7056568825650E-01  1.5913904107057E+00
63  6.2000000000000E-01  8.1763615344119E-01  1.6244533390375E+00
64  6.3000000000000E-01  7.6578005213345E-01  1.6499709936835E+00
65  6.4000000000000E-01  7.1517748121015E-01  1.6680323654952E+00
66  6.5000000000000E-01  6.6598979125796E-01  1.6787831922047E+00
67  6.6000000000000E-01  6.1835941504673E-01  1.6824227255786E+00
68  6.7000000000000E-01  5.7240987305986E-01  1.6792000883124E+00
69  6.8000000000000E-01  5.2824594617299E-01  1.6694102665912E+00
70  6.9000000000000E-01  4.8595400448224E-01  1.6533897853407E+00
71  7.0000000000000E-01  4.4560248036966E-01  1.6315121139519E+00
72  7.1000000000000E-01  4.0724247315237E-01  1.6041828507271E+00
73  7.2000000000000E-01  3.7090847208952E-01  1.5718347345202E+00
74  7.3000000000000E-01  3.3661918410921E-01  1.5349225320809E+00
75  7.4000000000000E-01  3.0437845236010E-01  1.4939178494839E+00
76  7.5000000000000E-01  2.7417625157972E-01  1.4493039157804E+00
77  7.6000000000000E-01  2.4598974629470E-01  1.4015703866497E+00
78  7.7000000000000E-01  2.1978439801797E-01  1.3512082153783E+00
79  7.8000000000000E-01  1.9551510787369E-01  1.2987046379441E+00
80  7.9000000000000E-01  1.7312738145349E-01  1.2445383183288E+00
81  8.0000000000000E-01  1.5255850317638E-01  1.1891746993986E+00
82  8.1000000000000E-01  1.3373870798158E-01  1.1330616037589E+00
83  8.2000000000000E-01  1.1659233881737E-01  1.0766251278660E+00
84  8.3000000000000E-01  1.0103897909262E-01  1.0202658713252E+00
85  8.4000000000000E-01  8.6994550021352E-02  9.6435554168702E-01
86  8.5000000000000E-01  7.4372363606881E-02  9.0923397311333E-01
87  8.6000000000000E-01  6.3084122872744E-02  8.5520659499346E-01
88  8.7000000000000E-01  5.3040861845610E-02  8.0254238389705E-01
89  8.8000000000000E-01  4.4153818722934E-02  7.5147232912595E-01
90  8.9000000000000E-01  3.6335236608863E-02  7.0218843854423E-01
91  9.0000000000000E-01  2.9499087168370E-02  6.5484330730445E-01
92  9.1000000000000E-01  2.3561713525322E-02  6.0955026754640E-01
93  9.2000000000000E-01  1.8442389708094E-02  5.6638413212646E-01
94  9.3000000000000E-01  1.4063794919665E-02  5.2538253996461E-01
95  9.4000000000000E-01  1.0352401870717E-02  4.8654790470516E-01
96  9.5000000000000E-01  7.2387793571042E-03  4.4984996213057E-01
97  9.6000000000000E-01  4.6578101798562E-03  4.1522890520849E-01
98  9.7000000000000E-01  2.5488263892626E-03  3.8259908887004E-01
99  9.8000000000000E-01  8.5566467718307E-04  3.5185327970824E-01
100  9.9000000000000E-01 -4.7335446416186E-04  3.2286741885158E-01
101  1.0000000000000E+00 -1.4855194598329E-03  2.9550585942244E-01
102  1.0100000000000E+00 -2.2238872135566E-03  2.6962703335726E-01
103  1.0200000000000E+00 -2.7275038742967E-03  2.4508949606988E-01
104  1.0300000000000E+00 -3.0316806400103E-03  2.2175829160810E-01
105  1.0400000000000E+00 -3.1683179835073E-03  1.9951157571095E-01
106  1.0500000000000E+00 -3.1662713264688E-03  1.7824742964637E-01
107  1.0600000000000E+00 -3.0517509210332E-03  1.5789079400285E-01
108  1.0700000000000E+00 -2.8487485282205E-03  1.3840044882826E-01
109  1.0800000000000E+00 -2.5794834113104E-03  1.1977596474712E-01
110  1.0900000000000E+00 -2.2648605605093E-03  1.0206455891725E-01
111  1.1000000000000E+00 -1.9249300364775E-03  8.5367677827177E-02
112  1.1100000000000E+00 -1.5792523511482E-03  6.9844831880927E-02
113  1.1200000000000E+00 -1.2456677665463E-03  5.5674405572410E-02
114  1.1300000000000E+00 -9.3843290164717E-04  4.2999767831037E-02
115  1.1400000000000E+00 -6.6807531004860E-04  3.1924263141074E-02
116  1.1500000000000E+00 -4.4220583125890E-04  2.2503866197097E-02
117  1.1600000000000E+00 -2.6682706906591E-04  1.4744498037120E-02
118  1.1700000000000E+00 -1.4096055365328E-04  8.6698953497518E-03
119  1.1800000000000E+00 -6.0072677676490E-05  4.2594705809994E-03
120  1.1900000000000E+00 -1.6789503051807E-05  1.4493286181008E-03
121  1.2000000000000E+00 -1.2761367406091E-06  1.4926012995429E-04
122  1.2100000000000E+00  5.6715661910422E-08 -8.6067675314523E-06
123  1.2200000000000E+00  3.8934160107893E-09 -4.0822709071650E-07
124  1.23 -0. -0.
125  1.24  0.  0.
126  1.25  0.  0.
127  1.26  0.  0.
128  1.27  0.  0.
129  1.28  0.  0.
130  1.29  0.  0.
131  1.30  0.  0.
132  1.31  0.  0.
133  1.32  0.  0.
134  1.33  0.  0.
135  1.34  0.  0.
136  1.35  0.  0.
137  1.36  0.  0.
138  1.37  0.  0.
139  1.38  0.  0.
140  1.39  0.  0.
141  1.40  0.  0.
142  1.41  0.  0.
143  1.42  0.  0.
144  1.43  0.  0.
145  1.44  0.  0.
146  1.45  0.  0.
147  1.46  0.  0.
148  1.47  0.  0.
149  1.48  0.  0.
150  1.49  0.  0.
151  1.50  0.  0.
152  1.51  0.  0.
153  1.52  0.  0.
154  1.53  0.  0.
155  1.54  0.  0.
156  1.55  0.  0.
157  1.56  0.  0.
158  1.57  0.  0.
159  1.58  0.  0.
160  1.59  0.  0.
161  1.60  0.  0.
162  1.61  0.  0.
163  1.62  0.  0.
164  1.63  0.  0.
165  1.64  0.  0.
166  1.65  0.  0.
167  1.66  0.  0.
168  1.67  0.  0.
169  1.68  0.  0.