Rg    ONCVPSP-4.0.1  r_core=   1.10118   1.20456   1.20456   1.15516
111.0000     51.0000      230613    zatom,zion,pspd
8      11   3     4   600     0    pspcod,pspxc,lmax,lloc,mmax,r2well
5.99000000  3.50000000  0.00000000    rchrg fchrg qchrg
3     3     2     2    nproj
3     1           extension_switch
3     3     3    nprojso
0                        -1.6743991532747E+01  1.2781940999827E+01 -8.8969194855092E-01
1  0.0000000000000E+00  3.2582869735620E-10  6.4167406943483E-09 -4.7500866739991E-08
2  1.0000000000000E-02  7.9899236090343E-02  2.1083430704451E-01 -7.7451588310100E-03
3  2.0000000000000E-02  1.5962363490482E-01  4.1928819189022E-01 -1.5754384154492E-02
4  3.0000000000000E-02  2.3899849190121E-01  6.2300957519876E-01 -2.4283904193925E-02
5  4.0000000000000E-02  3.1784937429821E-01  8.1970278762878E-01 -3.3574553583628E-02
6  5.0000000000000E-02  3.9600227261406E-01  1.0071560829889E+00 -4.3844770382204E-02
7  6.0000000000000E-02  4.7328377077982E-01  1.1832683144620E+00 -5.5284388372972E-02
8  7.0000000000000E-02  5.4952124065367E-01  1.3460744848708E+00 -6.8049429663830E-02
9  8.0000000000000E-02  6.2454306643684E-01  1.4937698755394E+00 -8.2258055098144E-02
10  9.0000000000000E-02  6.9817890406999E-01  1.6247324528711E+00 -9.7987775368694E-02
11  1.0000000000000E-01  7.7025998016435E-01  1.7375432488023E+00 -1.1527396679845E-01
12  1.1000000000000E-01  8.4061943438780E-01  1.8310044123547E+00 -1.3410967554455E-01
13  1.2000000000000E-01  9.0909270847758E-01  1.9041546361282E+00 -1.5444663559801E-01
14  1.3000000000000E-01  9.7551798418689E-01  1.9562816751449E+00 -1.7619737239596E-01
15  1.4000000000000E-01  1.0397366714928E+00  1.9869316971342E+00 -1.9923821789776E-01
16  1.5000000000000E-01  1.1015939473048E+00  1.9959152339871E+00 -2.2341302697121E-01
17  1.6000000000000E-01  1.1609393437256E+00  1.9833095441392E+00 -2.4853736074379E-01
18  1.7000000000000E-01  1.2176273836472E+00  1.9494572450667E+00 -2.7440289144300E-01
19  1.8000000000000E-01  1.2715182601339E+00  1.8949611334029E+00 -3.0078178574056E-01
20  1.9000000000000E-01  1.3224785546767E+00  1.8206751764101E+00 -3.2743083957802E-01
21  2.0000000000000E-01  1.3703819880362E+00  1.7276917312118E+00 -3.5409516603022E-01
22  2.1000000000000E-01  1.4151101960476E+00  1.6173251254024E+00 -3.8051127742375E-01
23  2.2000000000000E-01  1.4565535214917E+00  1.4910918121231E+00 -4.0640945154839E-01
24  2.3000000000000E-01  1.4946118119703E+00  1.3506873918842E+00 -4.3151532675738E-01
25  2.4000000000000E-01  1.5291952127035E+00  1.1979608695886E+00 -4.5555072906873E-01
26  2.5000000000000E-01  1.5602249423337E+00  1.0348865855751E+00 -4.7823379285981E-01
27  2.6000000000000E-01  1.5876340392014E+00  8.6353432134295E-01 -4.9927849214675E-01
28  2.7000000000000E-01  1.6113680651914E+00  6.8603813139220E-01 -5.1839374863116E-01
29  2.8000000000000E-01  1.6313857541532E+00  5.0456449010865E-01 -5.3528232282679E-01
30  2.9000000000000E-01  1.6476595920934E+00  3.2128036503277E-01 -5.4963972322591E-01
31  3.0000000000000E-01  1.6601763168336E+00  1.3832183389238E-01 -5.6115338375917E-01
32  3.1000000000000E-01  1.6689373256215E+00 -4.2236148243722E-02 -5.6950236054150E-01
33  3.2000000000000E-01  1.6739589802662E+00 -2.1840825348581E-01 -5.7435778460198E-01
34  3.3000000000000E-01  1.6752728007252E+00 -3.8832502379892E-01 -5.7538427826585E-01
35  3.4000000000000E-01  1.6729255396690E+00 -5.5025637830031E-01 -5.7224250015323E-01
36  3.5000000000000E-01  1.6669791323575E+00 -7.0263198508196E-01 -5.6459292917120E-01
37  3.6000000000000E-01  1.6575105181329E+00 -8.4405818196144E-01 -5.5210093384754E-01
38  3.7000000000000E-01  1.6446113319243E+00 -9.7333122329143E-01 -5.3444310286935E-01
39  3.8000000000000E-01  1.6283874663043E+00 -1.0894467277322E+00 -5.1131473914144E-01
40  3.9000000000000E-01  1.6089585068004E+00 -1.1916053013285E+00 -4.8243834669955E-01
41  4.0000000000000E-01  1.5864570452663E+00 -1.2792144078719E+00 -4.4757287111826E-01
42  4.1000000000000E-01  1.5610278781233E+00 -1.3518866509886E+00 -4.0652339323856E-01
43  4.2000000000000E-01  1.5328270981290E+00 -1.4094347165020E+00 -3.5915092642658E-01
44  4.3000000000000E-01  1.5020210899751E+00 -1.4518632965600E+00 -3.0538193202455E-01
45  4.4000000000000E-01  1.4687854414231E+00 -1.4793583764319E+00 -2.4521714843449E-01
46  4.5000000000000E-01  1.4333037828182E+00 -1.4922743089944E+00 -1.7873932792678E-01
47  4.6000000000000E-01  1.3957665686622E+00 -1.4911191295832E+00 -1.0611949252496E-01
48  4.7000000000000E-01  1.3563698154623E+00 -1.4765385746484E+00 -2.7621356050546E-02
49  4.8000000000000E-01  1.3153138102989E+00 -1.4492992617525E+00  5.6396387378853E-02
50  4.9000000000000E-01  1.2728018044884E+00 -1.4102714668379E+00  1.4548013927634E-01
51  5.0000000000000E-01  1.2290387063619E+00 -1.3604118989476E+00  2.3908398618782E-01
52  5.1000000000000E-01  1.1842297865810E+00 -1.3007468248543E+00  3.3657486009186E-01
53  5.2000000000000E-01  1.1385794085819E+00 -1.2323558389656E+00  4.3724022991489E-01
54  5.3000000000000E-01  1.0922897957352E+00 -1.1563565103865E+00  5.4029818518796E-01
55  5.4000000000000E-01  1.0455598456610E+00 -1.0738900723187E+00  6.4490967645320E-01
56  5.5000000000000E-01  9.9858400090455E-01 -9.8610825229201E-01  7.5019258762905E-01
57  5.6000000000000E-01  9.5155118388935E-01 -8.9416127821530E-01  8.5523723727935E-01
58  5.7000000000000E-01  9.0464380277734E-01 -7.9918703783042E-01  9.5912284230663E-01
59  5.8000000000000E-01  8.5803683361404E-01 -7.0230132039860E-01  1.0609344321146E+00
60  5.9000000000000E-01  8.1189698295455E-01 -6.0458903143187E-01  1.1597796761208E+00
61  6.0000000000000E-01  7.6638193408630E-01 -5.0709624548768E-01  1.2548050841415E+00
62  6.1000000000000E-01  7.2163967900451E-01 -4.1082294932334E-01  1.3452110581650E+00
63  6.2000000000000E-01  6.7780793747039E-01 -3.1671632821790E-01  1.4302653149130E+00
64  6.3000000000000E-01  6.3501366379523E-01 -2.2566446147862E-01  1.5093142599364E+00
65  6.4000000000000E-01  5.9337264144100E-01 -1.3849031786138E-01  1.5817919734008E+00
66  6.5000000000000E-01  5.5298916510012E-01 -5.5945976038656E-02  1.6472265619599E+00
67  6.6000000000000E-01  5.1395580959429E-01  2.1292962976803E-02  1.7052437362362E+00
68  6.7000000000000E-01  4.7635328469270E-01  9.2632758135986E-02  1.7555675849169E+00
69  6.8000000000000E-01  4.4025037476517E-01  1.5756664403239E-01  1.7980186294619E+00
70  6.9000000000000E-01  4.0570396202672E-01  2.1567957206415E-01  1.8325093529169E+00
71  7.0000000000000E-01  3.7275913196689E-01  2.6665242725227E-01  1.8590374973778E+00
72  7.1000000000000E-01  3.4144935936018E-01  3.1026553645541E-01  1.8776775126791E+00
73  7.2000000000000E-01  3.1179677299916E-01  3.4640125936839E-01  1.8885706097431E+00
74  7.3000000000000E-01  2.8381249695633E-01  3.7504544150427E-01  1.8919139223917E+00
75  7.4000000000000E-01  2.5749706575183E-01  3.9628750984382E-01  1.8879493087554E+00
76  7.5000000000000E-01  2.3284091027239E-01  4.1031900780174E-01  1.8769523262635E+00
77  7.6000000000000E-01  2.0982491065406E-01  4.1743039669017E-01  1.8592218921573E+00
78  7.7000000000000E-01  1.8842101161452E-01  4.1800599525689E-01  1.8350710953085E+00
79  7.8000000000000E-01  1.6859289491782E-01  4.1251698569726E-01  1.8048195566995E+00
80  7.9000000000000E-01  1.5029670279881E-01  4.0151248162193E-01  1.7687876481998E+00
81  8.0000000000000E-01  1.3348180529728E-01  3.8560872803477E-01  1.7272927760952E+00
82  8.1000000000000E-01  1.1809160358902E-01  3.6547658212911E-01  1.6806478219031E+00
83  8.2000000000000E-01  1.0406436059286E-01  3.4182750298831E-01  1.6291617135773E+00
84  8.3000000000000E-01  9.1334049420465E-02  3.1539835419798E-01  1.5731419809046E+00
85  8.4000000000000E-01  7.9831209661223E-02  2.8693539203675E-01  1.5128990354739E+00
86  8.5000000000000E-01  6.9483801096969E-02  2.5717786955325E-01  1.4487518136477E+00
87  8.6000000000000E-01  6.0218044255412E-02  2.2684173003706E-01  1.3810343357046E+00
88  8.7000000000000E-01  5.1959237265325E-02  1.9660388923463E-01  1.3101026702978E+00
89  8.8000000000000E-01  4.4632538791375E-02  1.6708761188813E-01  1.2363417542951E+00
90  8.9000000000000E-01  3.8163707412510E-02  1.3884947331856E-01  1.1601715065676E+00
91  9.0000000000000E-01  3.2479788665399E-02  1.1236836024223E-01  1.0820516918420E+00
92  9.1000000000000E-01  2.7509742092678E-02  8.8036907159794E-02  1.0024850374780E+00
93  9.2000000000000E-01  2.3185001992328E-02  6.6155686800453E-02  9.2201818083697E-01
94  9.3000000000000E-01  1.9439967126512E-02  4.6930377485550E-02  8.4124012530722E-01
95  9.4000000000000E-01  1.6212416372382E-02  3.0472020011885E-02  7.6077800538148E-01
96  9.5000000000000E-01  1.3443849132243E-02  1.6800355624898E-02  6.8129010066160E-01
97  9.6000000000000E-01  1.1079751207887E-02  5.8501093011392E-03  6.0345618970625E-01
98  9.7000000000000E-01  9.0697887205754E-03 -2.5200461369688E-03  5.2796549084798E-01
99  9.8000000000000E-01  7.3679344596197E-03 -8.5162345030201E-03  4.5550259186291E-01
100  9.9000000000000E-01  5.9325327035667E-03 -1.2396334717109E-02  3.8673191677139E-01
101  1.0000000000000E+00  4.7263100188355E-03 -1.4455760769826E-02  3.2228140959395E-01
102  1.0100000000000E+00  3.7163407444761E-03 -1.5012754296487E-02  2.6272622531410E-01
103  1.0200000000000E+00  2.8739767722978E-03 -1.4393942128446E-02  2.0857330230851E-01
104  1.0300000000000E+00  2.1747532528104E-03 -1.2920959696160E-02  1.6024775237175E-01
105  1.0400000000000E+00  1.5982699538343E-03 -1.0898800450423E-02  1.1808191578190E-01
106  1.0500000000000E+00  1.1268308239208E-03 -8.5962562603033E-03  8.2301007245823E-02
107  1.0600000000000E+00  7.3858491970044E-04 -6.1705547821531E-03  5.2971206013631E-02
108  1.0700000000000E+00  4.2982336403993E-04 -3.8656417528328E-03  3.0137716382172E-02
109  1.0800000000000E+00  2.0187526092383E-04 -1.9281135070029E-03  1.3779880688636E-02
110  1.0900000000000E+00  5.7220121933129E-05 -5.7421486902960E-04  3.7874623926955E-03
111  1.1000000000000E+00  1.4067539200940E-06 -1.4737837487397E-05  8.9145667158509E-05
112  1.1100000000000E+00  2.8118684940535E-07 -2.9391060516470E-06  1.8107741868456E-05
113  1.1200000000000E+00 -2.4885051106309E-08  2.5529672013135E-07 -1.6270843176014E-06
114  1.13  0.  0.  0.
115  1.14  0.  0.  0.
116  1.15  0.  0.  0.
117  1.16  0.  0.  0.
118  1.17  0.  0.  0.
119  1.18  0.  0.  0.
120  1.19  0.  0.  0.
121  1.20  0.  0.  0.
122  1.21  0.  0.  0.
123  1.22  0.  0.  0.
124  1.23  0.  0.  0.
125  1.24  0.  0.  0.
126  1.25  0.  0.  0.
127  1.26  0.  0.  0.
128  1.27  0.  0.  0.
129  1.28  0.  0.  0.
130  1.29  0.  0.  0.
131  1.30  0.  0.  0.
132  1.31  0.  0.  0.
133  1.32  0.  0.  0.
134  1.33  0.  0.  0.
135  1.34  0.  0.  0.
136  1.35  0.  0.  0.
137  1.36  0.  0.  0.
138  1.37  0.  0.  0.
139  1.38  0.  0.  0.
140  1.39  0.  0.  0.
141  1.40  0.  0.  0.
142  1.41  0.  0.  0.
143  1.42  0.  0.  0.
144  1.43  0.  0.  0.
145  1.44  0.  0.  0.
146  1.45  0.  0.  0.
147  1.46  0.  0.  0.
148  1.47  0.  0.  0.
149  1.48  0.  0.  0.
150  1.49  0.  0.  0.
151  1.50  0.  0.  0.
152  1.51  0.  0.  0.
153  1.52  0.  0.  0.
154  1.53  0.  0.  0.
155  1.54  0.  0.  0.
156  1.55  0.  0.  0.
157  1.56  0.  0.  0.
158  1.57  0.  0.  0.
159  1.58  0.  0.  0.
160  1.59  0.  0.  0.
161  1.60  0.  0.  0.
162  1.61  0.  0.  0.
163  1.62  0.  0.  0.
164  1.63  0.  0.  0.
165  1.64  0.  0.  0.
166  1.65  0.  0.  0.
167  1.66  0.  0.  0.
168  1.67  0.  0.  0.
169  1.68  0.  0.  0.
170  1.69  0.  0.  0.
171  1.70  0.  0.  0.
172  1.71  0.  0.  0.
173  1.72  0.  0.  0.
174  1.73  0.  0.  0.
175  1.74  0.  0.  0.
176  1.75  0.  0.  0.
177  1.76  0.  0.  0.
178  1.77  0.  0.  0.
179  1.78  0.  0.  0.
180  1.79  0.  0.  0.
181  1.80  0.  0.  0.
182  1.81  0.  0.  0.
183  1.82  0.  0.  0.
184  1.83  0.  0.  0.
185  1.84  0.  0.  0.
186  1.85  0.  0.  0.
187  1.86  0.  0.  0.
188  1.87  0.  0.  0.
189  1.88  0.  0.  0.
190  1.89  0.  0.  0.
191  1.90  0.  0.  0.
192  1.91  0.  0.  0.
193  1.92  0.  0.  0.
194  1.93  0.  0.  0.
195  1.94  0.  0.  0.
196  1.95  0.  0.  0.
197  1.96  0.  0.  0.
198  1.97  0.  0.  0.
199  1.98  0.  0.  0.
200  1.99  0.  0.  0.
201  2.00  0.  0.  0.
202  2.01  0.  0.  0.
203  2.02  0.  0.  0.
204  2.03  0.  0.  0.
205  2.04  0.  0.  0.
206  2.05  0.  0.  0.
207  2.06  0.  0.  0.
208  2.07  0.  0.  0.
209  2.08  0.  0.  0.
210  2.09  0.  0.  0.
211  2.10  0.  0.  0.
212  2.11  0.  0.  0.
213  2.12  0.  0.  0.
214  2.13  0.  0.  0.
215  2.14  0.  0.  0.
216  2.15  0.  0.  0.
217  2.16  0.  0.  0.
218  2.17  0.  0.  0.
219  2.18  0.  0.  0.
220  2.19  0.  0.  0.
221  2.20  0.  0.  0.
222  2.21  0.  0.  0.
223  2.22  0.  0.  0.
224  2.23  0.  0.  0.
225  2.24  0.  0.  0.
226  2.25  0.  0.  0.
227  2.26  0.  0.  0.
228  2.27  0.  0.  0.
229  2.28  0.  0.  0.
230  2.29  0.  0.  0.
231  2.30  0.  0.  0.
232  2.31  0.  0.  0.
233  2.32  0.  0.  0.
234  2.33  0.  0.  0.
235  2.34  0.  0.  0.
236  2.35  0.  0.  0.
237  2.36  0.  0.  0.
238  2.37  0.  0.  0.
239  2.38  0.  0.  0.
240  2.39  0.  0.  0.
241  2.40  0.  0.  0.
242  2.41  0.  0.  0.
243  2.42  0.  0.  0.
244  2.43  0.  0.  0.
245  2.44  0.  0.  0.
246  2.45  0.  0.  0.
247  2.46  0.  0.  0.
248  2.47  0.  0.  0.
249  2.48  0.  0.  0.
250  2.49  0.  0.  0.
251  2.50  0.  0.  0.
252  2.51  0.  0.  0.
253  2.52  0.  0.  0.
254  2.53  0.  0.  0.
255  2.54  0.  0.  0.
256  2.55  0.  0.  0.
257  2.56  0.  0.  0.
258  2.57  0.  0.  0.
259  2.58  0.  0.  0.
260  2.59  0.  0.  0.
261  2.60  0.  0.  0.
262  2.61  0.  0.  0.
263  2.62  0.  0.  0.
264  2.63  0.  0.  0.
265  2.64  0.  0.  0.
266  2.65  0.  0.  0.
267  2.66  0.  0.  0.
268  2.67  0.  0.  0.
269  2.68  0.  0.  0.
270  2.69  0.  0.  0.
271  2.70  0.  0.  0.
272  2.71  0.  0.  0.
273  2.72  0.  0.  0.
274  2.73  0.  0.  0.
275  2.74  0.  0.  0.
276  2.75  0.  0.  0.
277  2.76  0.  0.  0.
278  2.77  0.  0.  0.
279  2.78  0.  0.  0.
280  2.79  0.  0.  0.
281  2.80  0.  0.  0.
282  2.81  0.  0.  0.
283  2.82  0.  0.  0.
284  2.83  0.  0.  0.
285  2.84  0.  0.  0.
286  2.85  0.  0.  0.
287  2.86  0.  0.  0.
288  2.87  0.  0.  0.
289  2.88  0.  0.  0.
290  2.89  0.  0.  0.
291  2.90  0.  0.  0.
292  2.91  0.  0.  0.
293  2.92  0.  0.  0.
294  2.93  0.  0.  0.
295  2.94  0.  0.  0.
296  2.95  0.  0.  0.
297  2.96  0.  0.  0.
298  2.97  0.  0.  0.
299  2.98  0.  0.  0.
300  2.99  0.  0.  0.
301  3.00  0.  0.  0.
302  3.01  0.  0.  0.
303  3.02  0.  0.  0.
304  3.03  0.  0.  0.
305  3.04  0.  0.  0.
306  3.05  0.  0.  0.
307  3.06  0.  0.  0.
308  3.07  0.  0.  0.
309  3.08  0.  0.  0.
310  3.09  0.  0.  0.
311  3.10  0.  0.  0.
312  3.11  0.  0.  0.
313  3.12  0.  0.  0.
314  3.13  0.  0.  0.
315  3.14  0.  0.  0.
316  3.15  0.  0.  0.
317  3.16  0.  0.  0.
318  3.17  0.  0.  0.
319  3.18  0.  0.  0.
320  3.19  0.  0.  0.
321  3.20  0.  0.  0.
322  3.21  0.  0.  0.
323  3.22  0.  0.  0.
324  3.23  0.  0.  0.
325  3.24  0.  0.  0.
326  3.25  0.  0.  0.
327  3.26  0.  0.  0.
328  3.27  0.  0.  0.
329  3.28  0.  0.  0.
330  3.29  0.  0.  0.
331  3.30  0.  0.  0.
332  3.31  0.  0.  0.
333  3.32  0.  0.  0.
334  3.33  0.  0.  0.
335  3.34  0.  0.  0.
336  3.35  0.  0.  0.
337  3.36  0.  0.  0.
338  3.37  0.  0.  0.
339  3.38  0.  0.  0.
340  3.39  0.  0.  0.
341  3.40  0.  0.  0.
342  3.41  0.  0.  0.
343  3.42  0.  0.  0.
344  3.43  0.  0.  0.
345  3.44  0.  0.  0.
346  3.45  0.  0.  0.
347  3.46  0.  0.  0.
348  3.47  0.  0.  0.
349  3.48  0.  0.  0.
350  3.49  0.  0.  0.
351  3.50  0.  0.  0.
352  3.51  0.  0.  0.
353  3.52  0.  0.  0.
354  3.53  0.  0.  0.
355  3.54  0.  0.  0.
356  3.55  0.  0.  0.
357  3.56  0.  0.  0.
358  3.57  0.  0.  0.
359  3.58  0.  0.  0.
360  3.59  0.  0.  0.
361  3.60  0.  0.  0.
362  3.61  0.  0.  0.
363  3.62  0.  0.  0.
364  3.63  0.  0.  0.
365  3.64  0.  0.  0.
366  3.65  0.  0.  0.
367  3.66  0.  0.  0.
368  3.67  0.  0.  0.
369  3.68  0.  0.  0.
370  3.69  0.  0.  0.
371  3.70  0.  0.  0.
372  3.71  0.  0.  0.
373  3.72  0.  0.  0.
374  3.73  0.  0.  0.
375  3.74  0.  0.  0.
376  3.75  0.  0.  0.
377  3.76  0.  0.  0.
378  3.77  0.  0.  0.
379  3.78  0.  0.  0.
380  3.79  0.  0.  0.
381  3.80  0.  0.  0.
382  3.81  0.  0.  0.
383  3.82  0.  0.  0.
384  3.83  0.  0.  0.
385  3.84  0.  0.  0.
386  3.85  0.  0.  0.
387  3.86  0.  0.  0.
388  3.87  0.  0.  0.
389  3.88  0.  0.  0.
390  3.89  0.  0.  0.
391  3.90  0.  0.  0.
392  3.91  0.  0.  0.
393  3.92  0.  0.  0.
394  3.93  0.  0.  0.
395  3.94  0.  0.  0.
396  3.95  0.  0.  0.
397  3.96  0.  0.  0.
398  3.97  0.  0.  0.
399  3.98  0.  0.  0.
400  3.99  0.  0.  0.
401  4.00  0.  0.  0.
402  4.01  0.  0.  0.
403  4.02  0.  0.  0.
404  4.03  0.  0.  0.
405  4.04  0.  0.  0.
406  4.05  0.  0.  0.
407  4.06  0.  0.  0.
408  4.07  0.  0.  0.
409  4.08  0.  0.  0.
410  4.09  0.  0.  0.
411  4.10  0.  0.  0.
412  4.11  0.  0.  0.
413  4.12  0.  0.  0.
414  4.13  0.  0.  0.
415  4.14  0.  0.  0.
416  4.15  0.  0.  0.
417  4.16  0.  0.  0.
418  4.17  0.  0.  0.
419  4.18  0.  0.  0.
420  4.19  0.  0.  0.
421  4.20  0.  0.  0.
422  4.21  0.  0.  0.
423  4.22  0.  0.  0.
424  4.23  0.  0.  0.
425  4.24  0.  0.  0.
426  4.25  0.  0.  0.
427  4.26  0.  0.  0.
428  4.27  0.  0.  0.
429  4.28  0.  0.  0.
430  4.29  0.  0.  0.
431  4.30  0.  0.  0.
432  4.31  0.  0.  0.
433  4.32  0.  0.  0.
434  4.33  0.  0.  0.
435  4.34  0.  0.  0.
436  4.35  0.  0.  0.
437  4.36  0.  0.  0.
438  4.37  0.  0.  0.
439  4.38  0.  0.  0.
440  4.39  0.  0.  0.
441  4.40  0.  0.  0.
442  4.41  0.  0.  0.
443  4.42  0.  0.  0.
444  4.43  0.  0.  0.
445  4.44  0.  0.  0.
446  4.45  0.  0.  0.
447  4.46  0.  0.  0.
448  4.47  0.  0.  0.
449  4.48  0.  0.  0.
450  4.49  0.  0.  0.
451  4.50  0.  0.  0.
452  4.51  0.  0.  0.
453  4.52  0.  0.  0.
454  4.53  0.  0.  0.
455  4.54  0.  0.  0.
456  4.55  0.  0.  0.
457  4.56  0.  0.  0.
458  4.57  0.  0.  0.
459  4.58  0.  0.  0.
460  4.59  0.  0.  0.
461  4.60  0.  0.  0.
462  4.61  0.  0.  0.
463  4.62  0.  0.  0.
464  4.63  0.  0.  0.
465  4.64  0.  0.  0.
466  4.65  0.  0.  0.
467  4.66  0.  0.  0.
468  4.67  0.  0.  0.
469  4.68  0.  0.  0.
470  4.69  0.  0.  0.
471  4.70  0.  0.  0.
472  4.71  0.  0.  0.
473  4.72  0.  0.  0.
474  4.73  0.  0.  0.
475  4.74  0.  0.  0.
476  4.75  0.  0.  0.
477  4.76  0.  0.  0.
478  4.77  0.  0.  0.
479  4.78  0.  0.  0.
480  4.79  0.  0.  0.
481  4.80  0.  0.  0.
482  4.81  0.  0.  0.
483  4.82  0.  0.  0.
484  4.83  0.  0.  0.
485  4.84  0.  0.  0.
486  4.85  0.  0.  0.
487  4.86  0.  0.  0.
488  4.87  0.  0.  0.
489  4.88  0.  0.  0.
490  4.89  0.  0.  0.
491  4.90  0.  0.  0.
492  4.91  0.  0.  0.
493  4.92  0.  0.  0.
494  4.93  0.  0.  0.
495  4.94  0.  0.  0.
496  4.95  0.  0.  0.
497  4.96  0.  0.  0.
498  4.97  0.  0.  0.
499  4.98  0.  0.  0.
500  4.99  0.  0.  0.
501  5.00  0.  0.  0.
502  5.01  0.  0.  0.
503  5.02  0.  0.  0.
504  5.03  0.  0.  0.
505  5.04  0.  0.  0.
506  5.05  0.  0.  0.
507  5.06  0.  0.  0.
508  5.07  0.  0.  0.
509  5.08  0.  0.  0.
510  5.09  0.  0.  0.
511  5.10  0.  0.  0.
512  5.11  0.  0.  0.
513  5.12  0.  0.  0.
514  5.13  0.  0.  0.
515  5.14  0.  0.  0.
516  5.15  0.  0.  0.
517  5.16  0.  0.  0.
518  5.17  0.  0.  0.
519  5.18  0.  0.  0.
520  5.19  0.  0.  0.
521  5.20  0.  0.  0.
522  5.21  0.  0.  0.
523  5.22  0.  0.  0.
524  5.23  0.  0.  0.
525  5.24  0.  0.  0.
526  5.25  0.  0.  0.
527  5.26  0.  0.  0.
528  5.27  0.  0.  0.
529  5.28  0.  0.  0.
530  5.29  0.  0.  0.
531  5.30  0.  0.  0.
532  5.31  0.  0.  0.
533  5.32  0.  0.  0.
534  5.33  0.  0.  0.
535  5.34  0.  0.  0.
536  5.35  0.  0.  0.
537  5.36  0.  0.  0.
538  5.37  0.  0.  0.
539  5.38  0.  0.  0.
540  5.39  0.  0.  0.
541  5.40  0.  0.  0.
542  5.41  0.  0.  0.
543  5.42  0.  0.  0.
544  5.43  0.  0.  0.
545  5.44  0.  0.  0.
546  5.45  0.  0.  0.
547  5.46  0.  0.  0.
548  5.47  0.  0.  0.
549  5.48  0.  0.  0.
550  5.49  0.  0.  0.
551  5.50  0.  0.  0.
552  5.51  0.  0.  0.
553  5.52  0.  0.  0.
554  5.53  0.  0.  0.
555  5.54  0.  0.  0.
556  5.55  0.  0.  0.
557  5.56  0.  0.  0.
558  5.57  0.  0.  0.
559  5.58  0.  0.  0.
560  5.59  0.  0.  0.
561  5.60  0.  0.  0.
562  5.61  0.  0.  0.
563  5.62  0.  0.  0.
564  5.63  0.  0.  0.
565  5.64  0.  0.  0.
566  5.65  0.  0.  0.
567  5.66  0.  0.  0.
568  5.67  0.  0.  0.
569  5.68  0.  0.  0.
570  5.69  0.  0.  0.
571  5.70  0.  0.  0.
572  5.71  0.  0.  0.
573  5.72  0.  0.  0.
574  5.73  0.  0.  0.
575  5.74  0.  0.  0.
576  5.75  0.  0.  0.
577  5.76  0.  0.  0.
578  5.77  0.  0.  0.
579  5.78  0.  0.  0.
580  5.79  0.  0.  0.
581  5.80  0.  0.  0.
582  5.81  0.  0.  0.
583  5.82  0.  0.  0.
584  5.83  0.  0.  0.
585  5.84  0.  0.  0.
586  5.85  0.  0.  0.
587  5.86  0.  0.  0.
588  5.87  0.  0.  0.
589  5.88  0.  0.  0.
590  5.89  0.  0.  0.
591  5.90  0.  0.  0.
592  5.91  0.  0.  0.
593  5.92  0.  0.  0.
594  5.93  0.  0.  0.
595  5.94  0.  0.  0.
596  5.95  0.  0.  0.
597  5.96  0.  0.  0.
598  5.97  0.  0.  0.
599  5.98  0.  0.  0.
600  5.99  0.  0.  0.
1                        -1.5020933682539E+01 -2.1583873454896E+00 -8.8168155197766E-02
1  0.0000000000000E+00  5.4824355888439E-09 -2.1282655027210E-08  2.9352556774054E-08
2  1.0000000000000E-02  3.3581849211570E-03 -4.5178779352563E-03  4.0150636303977E-03
3  2.0000000000000E-02  1.3405544993247E-02 -1.8008212914058E-02  1.5989289291406E-02
4  3.0000000000000E-02  3.0060759475999E-02 -4.0281950884156E-02  3.5710886018818E-02
5  4.0000000000000E-02  5.3189168508270E-02 -7.1026797686336E-02  6.2830534761434E-02
6  5.0000000000000E-02  8.2604074451851E-02 -1.0981137055517E-01  9.6866829588787E-02
7  6.0000000000000E-02  1.1806854249438E-01 -1.5609092613654E-01  1.3721378097495E-01
8  7.0000000000000E-02  1.5929767958493E-01 -2.0921458255665E-01  1.8315026871059E-01
9  8.0000000000000E-02  2.0596136529341E-01 -2.6843393179449E-01  2.3385130264291E-01
10  9.0000000000000E-02  2.5768740306398E-01 -3.3291291898102E-01  2.8840092212182E-01
11  1.0000000000000E-01  3.1406505564145E-01 -4.0173884757931E-01  3.4580654014641E-01
12  1.1000000000000E-01  3.7464892425051E-01 -4.7393435396345E-01  4.0501451612558E-01
13  1.2000000000000E-01  4.3896312745319E-01 -5.4847018194295E-01  4.6492672222720E-01
14  1.3000000000000E-01  5.0650573254711E-01 -6.2427857746306E-01  5.2441785278416E-01
15  1.4000000000000E-01  5.7675338993088E-01 -7.0026711619404E-01  5.8235321440431E-01
16  1.5000000000000E-01  6.4916611908048E-01 -7.7533277209923E-01  6.3760672649026E-01
17  1.6000000000000E-01  7.2319219366814E-01 -8.4837603338799E-01  6.8907885796495E-01
18  1.7000000000000E-01  7.9827307291947E-01 -9.1831487351162E-01  7.3571422620444E-01
19  1.8000000000000E-01  8.7384832654176E-01 -9.8409838899436E-01  7.7651858853357E-01
20  1.9000000000000E-01  9.4936050145302E-01 -1.0447199228063E+00  8.1057496510901E-01
21  2.0000000000000E-01  1.0242598800741E+00 -1.0992295015338E+00  8.3705864450585E-01
22  2.1000000000000E-01  1.0980090820834E+00 -1.1467454265970E+00  8.5525083968028E-01
23  2.2000000000000E-01  1.1700874642355E+00 -1.1864648739759E+00  8.6455078198321E-01
24  2.3000000000000E-01  1.2399952760605E+00 -1.2176733730774E+00  8.6448606427323E-01
25  2.4000000000000E-01  1.3072575329412E+00 -1.2397530532108E+00  8.5472107058156E-01
26  2.5000000000000E-01  1.3714275721446E+00 -1.2521895653391E+00  8.3506335883450E-01
27  2.6000000000000E-01  1.4320902617995E+00 -1.2545776069894E+00  8.0546789440116E-01
28  2.7000000000000E-01  1.4888648374999E+00 -1.2466249991235E+00  7.6603906523032E-01
29  2.8000000000000E-01  1.5414073460938E+00 -1.2281552850200E+00  7.1703044355839E-01
30  2.9000000000000E-01  1.5894126812311E+00 -1.1991088424808E+00  6.5884229407404E-01
31  3.0000000000000E-01  1.6326162003070E+00 -1.1595425215978E+00  5.9201686345589E-01
32  3.1000000000000E-01  1.6707949174915E+00 -1.1096278405909E+00  5.1723152079604E-01
33  3.2000000000000E-01  1.7037682725026E+00 -1.0496477915441E+00  4.3528985202117E-01
34  3.3000000000000E-01  1.7313984796058E+00 -9.7999232595142E-01  3.4711084346867E-01
35  3.4000000000000E-01  1.7535904659365E+00 -9.0115260658374E-01  2.5371631974185E-01
36  3.5000000000000E-01  1.7702914125964E+00 -8.1371412708636E-01  1.5621682835166E-01
37  3.6000000000000E-01  1.7814899160159E+00 -7.1834881372683E-01  5.5796187989912E-02
38  3.7000000000000E-01  1.7872147907641E+00 -6.1580623469124E-01 -4.6305061836364E-02
39  3.8000000000000E-01  1.7875335382799E+00 -5.0690405116249E-01 -1.4880705501254E-01
40  3.9000000000000E-01  1.7825505088780E+00 -3.9251785103753E-01 -2.5040856910523E-01
41  4.0000000000000E-01  1.7724047868105E+00 -2.7357051052307E-01 -3.4980529534311E-01
42  4.1000000000000E-01  1.7572678301465E+00 -1.5102123099600E-01 -4.4570812775382E-01
43  4.2000000000000E-01  1.7373408987365E+00 -2.5854398472421E-02 -5.3686119133376E-01
44  4.3000000000000E-01  1.7128523045783E+00  1.0093158912386E-01 -6.2205933410148E-01
45  4.4000000000000E-01  1.6840545194841E+00  2.2833538585616E-01 -7.0016481733088E-01
46  4.5000000000000E-01  1.6512211750912E+00  3.5536351780880E-01 -7.7012295203155E-01
47  4.6000000000000E-01  1.6146439899679E+00  4.8104083194474E-01 -8.3097644759930E-01
48  4.7000000000000E-01  1.5746296578769E+00  6.0442045569030E-01 -8.8187826020539E-01
49  4.8000000000000E-01  1.5314967301895E+00  7.2459315967598E-01 -9.2210275355816E-01
50  4.9000000000000E-01  1.4855725240333E+00  8.4069602768070E-01 -9.5105501273247E-01
51  5.0000000000000E-01  1.4371900860369E+00  9.5192035031400E-01 -9.6827818234581E-01
52  5.1000000000000E-01  1.3866852395474E+00  1.0575186721007E+00 -9.7345873294367E-01
53  5.2000000000000E-01  1.3343937409760E+00  1.1568109351789E+00 -9.6642959349451E-01
54  5.3000000000000E-01  1.2806485685218E+00  1.2491896765629E+00 -9.4717112280571E-01
55  5.4000000000000E-01  1.2257773639624E+00  1.3341242496463E+00 -9.1580992787076E-01
56  5.5000000000000E-01  1.1701000455418E+00  1.4111640541219E+00 -8.7261557204737E-01
57  5.6000000000000E-01  1.1139266072483E+00  1.4799407715920E+00 -8.1799524996510E-01
58  5.7000000000000E-01  1.0575551170180E+00  1.5401696166616E+00 -7.5248653858613E-01
59  5.8000000000000E-01  1.0012699236394E+00  1.5916496250998E+00 -6.7674836436530E-01
60  5.9000000000000E-01  9.4534007942457E-01  1.6342630115891E+00 -5.9155035444456E-01
61  6.0000000000000E-01  8.9001798306369E-01  1.6679736395557E+00 -4.9776076481920E-01
62  6.1000000000000E-01  8.3553824453638E-01  1.6928246544927E+00 -3.9633319999934E-01
63  6.2000000000000E-01  7.8211677153230E-01  1.7089353399995E+00 -2.8829235650639E-01
64  6.3000000000000E-01  7.2995007455452E-01  1.7164972624113E+00 -1.7471903628431E-01
65  6.4000000000000E-01  6.7921478576562E-01  1.7157697753783E+00 -5.6734685546901E-02
66  6.5000000000000E-01  6.3006738469745E-01  1.7070749600557E+00  6.4514280441612E-02
67  6.6000000000000E-01  5.8264412219513E-01  1.6907920797229E+00  1.8787210572496E-01
68  6.7000000000000E-01  5.3706113240952E-01  1.6673516296804E+00  3.1218901835061E-01
69  6.8000000000000E-01  4.9341472129650E-01  1.6372290642368E+00  4.3633600321644E-01
70  6.9000000000000E-01  4.5178181892626E-01  1.6009382825544E+00  5.5921878784559E-01
71  7.0000000000000E-01  4.1222058195102E-01  1.5590249541436E+00  6.7979082296033E-01
72  7.1000000000000E-01  3.7477113182235E-01  1.5120597629656E+00  7.9706506066545E-01
73  7.2000000000000E-01  3.3945641378298E-01  1.4606316464995E+00  9.1012435748482E-01
74  7.3000000000000E-01  3.0628316127734E-01  1.4053411028560E+00  1.0181303570062E+00
75  7.4000000000000E-01  2.7524295021940E-01  1.3467936351513E+00  1.1203307370156E+00
76  7.5000000000000E-01  2.4631332751815E-01  1.2855933979952E+00  1.2160647382196E+00
77  7.6000000000000E-01  2.1945899837733E-01  1.2223371061738E+00  1.3047669254174E+00
78  7.7000000000000E-01  1.9463305714756E-01  1.1576082605146E+00  1.3859691666998E+00
79  7.8000000000000E-01  1.7177824690211E-01  1.0919717405784E+00  1.4593008513152E+00
80  7.9000000000000E-01  1.5082823342138E-01  1.0259688083111E+00  1.5244874016358E+00
81  8.0000000000000E-01  1.3170887989357E-01  9.6011256117139E-01  1.5813471685613E+00
82  8.1000000000000E-01  1.1433950935639E-01  8.9488386758410E-01  1.6297868321014E+00
83  8.2000000000000E-01  9.8634142708027E-02  8.3072781191660E-01  1.6697954591942E+00
84  8.3000000000000E-01  8.4502700989946E-02  7.6805067056635E-01  1.7014373984926E+00
85  8.4000000000000E-01  7.1852161581238E-02  7.0721743523640E-01  1.7248442163589E+00
86  8.5000000000000E-01  6.0587658931399E-02  6.4854989408095E-01  1.7402058992007E+00
87  8.6000000000000E-01  5.0613521485936E-02  5.9232527615862E-01  1.7477615641374E+00
88  8.7000000000000E-01  4.1834237517050E-02  5.3877545955465E-01  1.7477899324919E+00
89  8.8000000000000E-01  3.4155343650045E-02  4.8808673864164E-01  1.7405998284823E+00
90  8.9000000000000E-01  2.7484230965859E-02  4.4040014125608E-01  1.7265209685795E+00
91  9.0000000000000E-01  2.1730864652512E-02  3.9581228208432E-01  1.7058953052105E+00
92  9.1000000000000E-01  1.6808414264397E-02  3.5437673428670E-01  1.6790691818164E+00
93  9.2000000000000E-01  1.2633792720289E-02  3.1610589735156E-01  1.6463865448352E+00
94  9.3000000000000E-01  9.1281032204750E-03  2.8097333536841E-01  1.6081834421280E+00
95  9.4000000000000E-01  6.2169942828168E-03  2.4891655635398E-01  1.5647840170129E+00
96  9.5000000000000E-01  3.8309240791538E-03  2.1984019996343E-01  1.5164981827432E+00
97  9.6000000000000E-01  1.9053361903844E-03  1.9361959788650E-01  1.4636211344250E+00
98  9.7000000000000E-01  3.8074978309914E-04  1.7010466847748E-01  1.4064348245223E+00
99  9.8000000000000E-01 -7.9723196331250E-04  1.4912410471352E-01  1.3452114948040E+00
100  9.9000000000000E-01 -1.6779905896878E-03  1.3048981243791E-01  1.2802193225053E+00
101  1.0000000000000E+00 -2.3060329713199E-03  1.1400155403873E-01  1.2117302022328E+00
102  1.0100000000000E+00 -2.7211979221651E-03  9.9451751261708E-02  1.1400296484523E+00