Fr    ONCVPSP-4.0.1  r_core=   1.60257   1.60257   1.75302   1.65123
87.0000     27.0000      230612    zatom,zion,pspd
8      11   3     4   600     0    pspcod,pspxc,lmax,lloc,mmax,r2well
5.99000000  5.00000000  0.00000000    rchrg fchrg qchrg
3     3     2     2    nproj
3     1           extension_switch
4     4     3    nprojso
0                         6.9748749713378E+00 -3.2517972176493E+00  8.4645956537447E-01
1  0.0000000000000E+00 -1.2827397477544E-08 -1.6834811322752E-10 -2.8960220999075E-08
2  1.0000000000000E-02  1.1050356273232E-01  3.5175507840046E-02  5.6335555761725E-02
3  2.0000000000000E-02  2.2024592974811E-01  7.0317477372041E-02  1.1155986938226E-01
4  3.0000000000000E-02  3.2847577872844E-01  1.0539251381308E-01  1.6458206062791E-01
5  4.0000000000000E-02  4.3446135981490E-01  1.4036750713587E-01  2.1435158406168E-01
6  5.0000000000000E-02  5.3749984937631E-01  1.7520976875418E-01  2.5987743151042E-01
7  6.0000000000000E-02  6.3692619419722E-01  2.0988716150023E-01  3.0024619778334E-01
8  7.0000000000000E-02  7.3212129165744E-01  2.4436822086072E-01  3.3463866555439E-01
9  8.0000000000000E-02  8.2251936429911E-01  2.7862226560592E-01  3.6234459428153E-01
10  9.0000000000000E-02  9.0761440272406E-01  3.1261949615099E-01  3.8277543313774E-01
11  1.0000000000000E-01  9.8696556871974E-01  3.4633107922417E-01  3.9547471847847E-01
12  1.1000000000000E-01  1.0602014705182E+00  3.7972921768007E-01  4.0012596155758E-01
13  1.2000000000000E-01  1.1270232437517E+00  4.1278720458107E-01  3.9655788113562E-01
14  1.3000000000000E-01  1.1872063945490E+00  4.4547946097187E-01  3.8474688732795E-01
15  1.4000000000000E-01  1.2406013848644E+00  4.7778155708418E-01  3.6481677649097E-01
16  1.5000000000000E-01  1.2871329640771E+00  5.0967021702544E-01  3.3703565108818E-01
17  1.6000000000000E-01  1.3267982746719E+00  5.4112330732028E-01  3.0181013224333E-01
18  1.7000000000000E-01  1.3596637829356E+00  5.7211980998084E-01  2.5967698501483E-01
19  1.8000000000000E-01  1.3858611076368E+00  6.0263978107526E-01  2.1129232628960E-01
20  1.9000000000000E-01  1.4055818401503E+00  6.3266429603760E-01  1.5741863161500E-01
21  2.0000000000000E-01  1.4190714680598E+00  6.6217538321165E-01  9.8909799360601E-02
22  2.1000000000000E-01  1.4266225305495E+00  6.9115594734052E-01  3.6694567508642E-02
23  2.2000000000000E-01  1.4285671475754E+00  7.1958968489963E-01 -2.8241390597111E-02
24  2.3000000000000E-01  1.4252690756223E+00  7.4746099331923E-01 -9.4874340656732E-02
25  2.4000000000000E-01  1.4171154506085E+00  7.7475487625051E-01 -1.6216196346101E-01
26  2.5000000000000E-01  1.4045083830546E+00  8.0145684709571E-01 -2.2906305370079E-01
27  2.6000000000000E-01  1.3878565719086E+00  8.2755283304511E-01 -2.9455705973491E-01
28  2.7000000000000E-01  1.3675671014160E+00  8.5302908184254E-01 -3.5766308705027E-01
29  2.8000000000000E-01  1.3440375801870E+00  8.7787207343719E-01 -4.1745800004460E-01
30  2.9000000000000E-01  1.3176487732737E+00  9.0206843857269E-01 -4.7309327574732E-01
31  3.0000000000000E-01  1.2887578668033E+00  9.2560488621913E-01 -5.2381028876690E-01
32  3.1000000000000E-01  1.2576924907668E+00  9.4846814157047E-01 -5.6895373858960E-01
33  3.2000000000000E-01  1.2247456092190E+00  9.7064489611400E-01 -6.0798296769434E-01
34  3.3000000000000E-01  1.1901713687502E+00  9.9212177103388E-01 -6.4048096104448E-01
35  3.4000000000000E-01  1.1541819760222E+00  1.0128852949413E+00 -6.6616086351445E-01
36  3.5000000000000E-01  1.1169456538170E+00  1.0329218966365E+00 -6.8486990079843E-01
37  3.6000000000000E-01  1.0785857028754E+00  1.0522179133060E+00 -6.9659064034580E-01
38  3.7000000000000E-01  1.0391806742346E+00  1.0707596142502E+00 -7.0143958087449E-01
39  3.8000000000000E-01  9.9876563426786E-01  1.0885332399271E+00 -6.9966311100342E-01
40  3.9000000000000E-01  9.5733448263156E-01  1.1055250557897E+00 -6.9163092850161E-01
41  4.0000000000000E-01  9.1484326226013E-01  1.1217214201026E+00 -6.7782706059087E-01
42  4.1000000000000E-01  8.7121438084602E-01  1.1371088646415E+00 -6.5883867170728E-01
43  4.2000000000000E-01  8.2634164526255E-01  1.1516741869219E+00 -6.3534288725620E-01
44  4.3000000000000E-01  7.8009599449282E-01  1.1654045523711E+00 -6.0809189937640E-01
45  4.4000000000000E-01  7.3233180311010E-01  1.1782876046572E+00 -5.7789665286605E-01
46  4.5000000000000E-01  6.8289361646970E-01  1.1903115822179E+00 -5.4560943561809E-01
47  4.6000000000000E-01  6.3162317071524E-01  1.2014654389074E+00 -5.1210571769694E-01
48  4.7000000000000E-01  5.7836654561415E-01  1.2117389665837E+00 -4.7826559621221E-01
49  4.8000000000000E-01  5.2298129619769E-01  1.2211229174135E+00 -4.4495520920326E-01
50  4.9000000000000E-01  4.6534341020924E-01  1.2296091236611E+00 -4.1300848076427E-01
51  5.0000000000000E-01  4.0535394241681E-01  1.2371906127676E+00 -3.8320955168327E-01
52  5.1000000000000E-01  3.4294518382368E-01  1.2438617155963E+00 -3.5627623513393E-01
53  5.2000000000000E-01  2.7808623355215E-01  1.2496181658423E+00 -3.3284481578393E-01
54  5.3000000000000E-01  2.1078785346997E-01  1.2544571887521E+00 -3.1345648351688E-01
55  5.4000000000000E-01  1.4110650021489E-01  1.2583775774896E+00 -2.9854566037563E-01
56  5.5000000000000E-01  6.9147445848152E-02  1.2613797557021E+00 -2.8843044198575E-01
57  5.6000000000000E-01 -4.9330834116235E-03  1.2634658250817E+00 -2.8330533337041E-01
58  5.7000000000000E-01 -8.0926801421927E-02  1.2646395969888E+00 -2.8323641453611E-01
59  5.8000000000000E-01 -1.5857331997916E-01  1.2649066074806E+00 -2.8815902437941E-01
60  5.9000000000000E-01 -2.3756118010679E-01  1.2642741153877E+00 -2.9787800325135E-01
61  6.0000000000000E-01 -3.1752994562858E-01  1.2627510833777E+00 -3.1207048584922E-01
62  6.1000000000000E-01 -3.9807332729033E-01  1.2603481422449E+00 -3.3029118792277E-01
63  6.2000000000000E-01 -4.7874328583474E-01  1.2570775389642E+00 -3.5198008349773E-01
64  6.3000000000000E-01 -5.5905504369183E-01  1.2529530693236E+00 -3.7647232481266E-01
65  6.4000000000000E-01 -6.3849291767604E-01  1.2479899962257E+00 -4.0301021576283E-01
66  6.5000000000000E-01 -7.1651686960301E-01  1.2422049549882E+00 -4.3075701211058E-01
67  6.6000000000000E-01 -7.9256965833562E-01  1.2356158472010E+00 -4.5881228872502E-01
68  6.7000000000000E-01 -8.6608446568120E-01  1.2282417248835E+00 -4.8622858624695E-01
69  6.8000000000000E-01 -9.3649285998010E-01  1.2201026668519E+00 -5.1202902730807E-01
70  6.9000000000000E-01 -1.0032329552922E+00  1.2112196493234E+00 -5.3522557614049E-01
71  7.0000000000000E-01 -1.0657576208889E+00  1.2016144128763E+00 -5.5483760533716E-01
72  7.1000000000000E-01 -1.1235425953256E+00  1.1913093279271E+00 -5.6991042979121E-01
73  7.2000000000000E-01 -1.1760943616869E+00  1.1803272608983E+00 -5.7953347046382E-01
74  7.3000000000000E-01 -1.2229576455819E+00  1.1686914432147E+00 -5.8285771948017E-01
75  7.4000000000000E-01 -1.2637224050022E+00  1.1564253451969E+00 -5.7911219290260E-01
76  7.5000000000000E-01 -1.2980301910643E+00  1.1435525568124E+00 -5.6761907803384E-01
77  7.6000000000000E-01 -1.3255797707170E+00  1.1300966771023E+00 -5.4780730780733E-01
78  7.7000000000000E-01 -1.3461319164635E+00  1.1160812139236E+00 -5.1922432519577E-01
79  7.8000000000000E-01 -1.3595132837157E+00  1.1015294954445E+00 -4.8154583497072E-01
80  7.9000000000000E-01 -1.3656193132668E+00  1.0864645946003E+00 -4.3458337791043E-01
81  8.0000000000000E-01 -1.3644161141884E+00  1.0709092674649E+00 -3.7828960290752E-01
82  8.1000000000000E-01 -1.3559413008818E+00  1.0548859062285E+00 -3.1276115460767E-01
83  8.2000000000000E-01 -1.3403037766835E+00  1.0384165071911E+00 -2.3823913739903E-01
84  8.3000000000000E-01 -1.3176824749802E+00  1.0215226538992E+00 -1.5510715995458E-01
85  8.4000000000000E-01 -1.2883240868874E+00  1.0042255152657E+00 -6.3887007302498E-02
86  8.5000000000000E-01 -1.2525398218376E+00  9.8654585823197E-01  3.4767971225005E-02
87  8.6000000000000E-01 -1.2107012636148E+00  9.6850407425773E-01  1.4008163057585E-01
88  8.7000000000000E-01 -1.1632353991490E+00  9.5012021866581E-01  2.5116579110412E-01
89  8.8000000000000E-01 -1.1106189105190E+00  9.3141406162809E-01  3.6703279530425E-01
90  8.9000000000000E-01 -1.0533718318549E+00  9.1240514936035E-01  4.8660963429292E-01
91  9.0000000000000E-01 -9.9205068203185E-01  8.9311287390248E-01  6.0875339373335E-01
92  9.1000000000000E-01 -9.2724119104505E-01  8.7355654969787E-01  7.3226774931251E-01
93  9.2000000000000E-01 -8.5955074267636E-01  8.5375549505604E-01  8.5592022743302E-01
94  9.3000000000000E-01 -7.8960065845192E-01  8.3372911648676E-01  9.7845993764773E-01
95  9.4000000000000E-01 -7.1801844795367E-01  8.1349699383483E-01  1.0986354796167E+00
96  9.5000000000000E-01 -6.4543014832832E-01  7.9307896412140E-01  1.2152127289777E+00
97  9.6000000000000E-01 -5.7245287143006E-01  7.7249520201300E-01  1.3269922133573E+00
98  9.7000000000000E-01 -4.9968767056509E-01  7.5176629488974E-01  1.4328258015891E+00
99  9.8000000000000E-01 -4.2771283044753E-01  7.3091331057203E-01  1.5316324457356E+00
100  9.9000000000000E-01 -3.5707767393090E-01  7.0995785588543E-01  1.6224127363263E+00
101  1.0000000000000E+00 -2.8829696757988E-01  6.8892212439694E-01  1.7042620558591E+00
102  1.0100000000000E+00 -2.2184599544324E-01  6.6782893183757E-01  1.7763821435390E+00
103  1.0200000000000E+00 -1.5815635675728E-01  6.4670173793482E-01  1.8380909148698E+00
104  1.0300000000000E+00 -9.7612529041767E-02  6.2556465360905E-01  1.8888304124167E+00
105  1.0400000000000E+00 -4.0549223427599E-02  6.0444243273675E-01  1.9281727982214E+00
106  1.0500000000000E+00  1.2750455632324E-02  5.8336044794733E-01  1.9558243333041E+00
107  1.0600000000000E+00  6.2056048555601E-02  5.6234465019288E-01  1.9716273247149E+00
108  1.0700000000000E+00  1.0718999297598E-01  5.4142151210891E-01  1.9755600551639E+00
109  1.0800000000000E+00  1.4802711967706E-01  5.2061795546308E-01  1.9677347436494E+00
110  1.0900000000000E+00  1.8449343373225E-01  4.9996126326370E-01  1.9483936171458E+00
111  1.1000000000000E+00  2.1656423347393E-01  4.7947897736678E-01  1.9179032028760E+00
112  1.1100000000000E+00  2.4426162948687E-01  4.5919878267373E-01  1.8767469772929E+00
113  1.1200000000000E+00  2.6765153390771E-01  4.3914837924943E-01  1.8255165314767E+00
114  1.1300000000000E+00  2.8684019670397E-01  4.1935534390589E-01  1.7649014326051E+00
115  1.1400000000000E+00  3.0197037031030E-01  3.9984698299026E-01  1.6956779774438E+00
116  1.1500000000000E+00  3.1321718691414E-01  3.8065017828000E-01  1.6186970460521E+00
117  1.1600000000000E+00  3.2078383384511E-01  3.6179122802525E-01  1.5348712721303E+00
118  1.1700000000000E+00  3.2489711195203E-01  3.4329568528139E-01  1.4451617505359E+00
119  1.1800000000000E+00  3.2580295960236E-01  3.2518819574681E-01  1.3505645025440E+00
120  1.1900000000000E+00  3.2376202115997E-01  3.0749233735730E-01  1.2520969155720E+00
121  1.2000000000000E+00  3.1904533353646E-01  2.9023046389089E-01  1.1507843664360E+00
122  1.2100000000000E+00  3.1193019792430E-01  2.7342355480455E-01  1.0476472261400E+00
123  1.2200000000000E+00  3.0269629619532E-01  2.5709107345779E-01  9.4368842991277E-01
124  1.2300000000000E+00  2.9162210291380E-01  2.4125083577866E-01  8.3988177909452E-01
125  1.2400000000000E+00  2.7898163472724E-01  2.2591889129716E-01  7.3716112207018E-01
126  1.2500000000000E+00  2.6504156913439E-01  2.1110941831053E-01  6.3641053986795E-01
127  1.2600000000000E+00  2.5005875467906E-01  1.9683463475785E-01  5.3845563912870E-01
128  1.2700000000000E+00  2.3427812456727E-01  1.8310472617040E-01  4.4405603109350E-01
129  1.2800000000000E+00  2.1793101577888E-01  1.6992779183092E-01  3.5389905053529E-01
130  1.2900000000000E+00  2.0123388621195E-01  1.5730981002559E-01  2.6859474382581E-01
131  1.3000000000000E+00  1.8438741335273E-01  1.4525462300826E-01  1.8867213080905E-01
132  1.3100000000000E+00  1.6757594958830E-01  1.3376394202109E-01  1.1457672128992E-01
133  1.3200000000000E+00  1.5096730175358E-01  1.2283737243520E-01  4.6669244246319E-02
134  1.3300000000000E+00  1.3471279590830E-01  1.1247245879165E-01 -1.4774473400085E-02
135  1.3400000000000E+00  1.1894758272838E-01  1.0266474923941E-01 -6.9562561324810E-02
136  1.3500000000000E+00  1.0379113441452E-01  9.3407878590310E-02 -1.1758519410846E-01
137  1.3600000000000E+00  8.9347880629620E-02  8.4693668942142E-02 -1.5881182928778E-01
138  1.3700000000000E+00  7.5707928705369E-02  7.6512246565012E-02 -1.9328772434449E-01
139  1.3800000000000E+00  6.2947812191185E-02  6.8852173504421E-02 -2.2112987268796E-01
140  1.3900000000000E+00  5.1131211704737E-02  6.1700592133310E-02 -2.4252250708945E-01
141  1.4000000000000E+00  4.0309592914627E-02  5.5043380683995E-02 -2.5771232506742E-01
142  1.4100000000000E+00  3.0522708234373E-02  4.8865317614887E-02 -2.6700359440418E-01
143  1.4200000000000E+00  2.1798911373298E-02  4.3150252515096E-02 -2.7075329843046E-01
144  1.4300000000000E+00  1.4155237094842E-02  3.7881281127681E-02 -2.6936648004650E-01
145  1.4400000000000E+00  7.5972022893008E-03  3.3040921978048E-02 -2.6329194086296E-01
146  1.4500000000000E+00  2.1182886263898E-03  2.8611292029960E-02 -2.5301844750145E-01
147  1.4600000000000E+00 -2.3009285459987E-03  2.4574278758349E-02 -2.3907159125152E-01
148  1.4700000000000E+00 -5.6940358351039E-03  2.0911706025217E-02 -2.2201144008494E-01
149  1.4800000000000E+00 -8.1104494987372E-03  1.7605491151010E-02 -2.0243111797025E-01
150  1.4900000000000E+00 -9.6175136672970E-03  1.4637790705737E-02 -1.8095642152899E-01
151  1.5000000000000E+00 -1.0303023786555E-02  1.1991133226984E-02 -1.5824651872638E-01
152  1.5100000000000E+00 -1.0277546568889E-02  9.6485453345240E-03 -1.3499367418858E-01
153  1.5200000000000E+00 -9.6669461330116E-03  7.5938538429147E-03 -1.1189138071712E-01
154  1.5300000000000E+00 -8.6131854218923E-03  5.8109640212346E-03 -8.9613006755505E-02
155  1.5400000000000E+00 -7.2671647019632E-03  4.2843400882895E-03 -6.8794166091440E-02
156  1.5500000000000E+00 -5.7473403460867E-03  3.0031130732615E-03 -4.9960767419050E-02
157  1.5600000000000E+00 -4.1777731081404E-03  1.9579258121147E-03 -3.3586565342122E-02
158  1.5700000000000E+00 -2.6869540450046E-03  1.1410104858476E-03 -2.0089030075591E-02
159  1.5800000000000E+00 -1.4077338090577E-03  5.4645573049268E-04 -9.8305493749263E-03
160  1.5900000000000E+00 -4.6895412207751E-04  1.6792829255865E-04 -3.0725925674502E-03
161  1.6000000000000E+00 -3.4816498849621E-05  1.1499038515755E-05 -2.1325294326155E-04
162  1.6100000000000E+00  7.3538169631142E-06 -2.3386946504246E-06  4.3810343756847E-05
163  1.6200000000000E+00 -2.2171905314626E-06  7.3314349760600E-07 -1.3642657046731E-05
164  1.63  0.  0.  0.
165  1.64  0.  0.  0.
166  1.65  0.  0.  0.
167  1.66  0.  0.  0.
168  1.67  0.  0.  0.
169  1.68  0.  0.  0.
170  1.69  0.  0.  0.
171  1.70  0.  0.  0.
172  1.71  0.  0.  0.
173  1.72  0.  0.  0.
174  1.73  0.  0.  0.
175  1.74  0.  0.  0.
176  1.75  0.  0.  0.
177  1.76  0.  0.  0.
178  1.77  0.  0.  0.
179  1.78  0.  0.  0.
180  1.79  0.  0.  0.
181  1.80  0.  0.  0.
182  1.81  0.  0.  0.
183  1.82  0.  0.  0.
184  1.83  0.  0.  0.
185  1.84  0.  0.  0.
186  1.85  0.  0.  0.
187  1.86  0.  0.  0.
188  1.87  0.  0.  0.
189  1.88  0.  0.  0.
190  1.89  0.  0.  0.
191  1.90  0.  0.  0.
192  1.91  0.  0.  0.
193  1.92  0.  0.  0.
194  1.93  0.  0.  0.
195  1.94  0.  0.  0.
196  1.95  0.  0.  0.
197  1.96  0.  0.  0.
198  1.97  0.  0.  0.
199  1.98  0.  0.  0.
200  1.99  0.  0.  0.
201  2.00  0.  0.  0.
202  2.01  0.  0.  0.
203  2.02  0.  0.  0.
204  2.03  0.  0.  0.
205  2.04  0.  0.  0.
206  2.05  0.  0.  0.
207  2.06  0.  0.  0.
208  2.07  0.  0.  0.
209  2.08  0.  0.  0.
210  2.09  0.  0.  0.
211  2.10  0.  0.  0.
212  2.11  0.  0.  0.
213  2.12  0.  0.  0.
214  2.13  0.  0.  0.
215  2.14  0.  0.  0.
216  2.15  0.  0.  0.
217  2.16  0.  0.  0.
218  2.17  0.  0.  0.
219  2.18  0.  0.  0.
220  2.19  0.  0.  0.
221  2.20  0.  0.  0.
222  2.21  0.  0.  0.
223  2.22  0.  0.  0.
224  2.23  0.  0.  0.
225  2.24  0.  0.  0.
226  2.25  0.  0.  0.
227  2.26  0.  0.  0.
228  2.27  0.  0.  0.
229  2.28  0.  0.  0.
230  2.29  0.  0.  0.
231  2.30  0.  0.  0.
232  2.31  0.  0.  0.
233  2.32  0.  0.  0.
234  2.33  0.  0.  0.
235  2.34  0.  0.  0.
236  2.35  0.  0.  0.
237  2.36  0.  0.  0.
238  2.37  0.  0.  0.
239  2.38  0.  0.  0.
240  2.39  0.  0.  0.
241  2.40  0.  0.  0.
242  2.41  0.  0.  0.
243  2.42  0.  0.  0.
244  2.43  0.  0.  0.
245  2.44  0.  0.  0.
246  2.45  0.  0.  0.
247  2.46  0.  0.  0.
248  2.47  0.  0.  0.
249  2.48  0.  0.  0.
250  2.49  0.  0.  0.
251  2.50  0.  0.  0.
252  2.51  0.  0.  0.
253  2.52  0.  0.  0.
254  2.53  0.  0.  0.
255  2.54  0.  0.  0.
256  2.55  0.  0.  0.
257  2.56  0.  0.  0.
258  2.57  0.  0.  0.
259  2.58  0.  0.  0.
260  2.59  0.  0.  0.
261  2.60  0.  0.  0.
262  2.61  0.  0.  0.
263  2.62  0.  0.  0.
264  2.63  0.  0.  0.
265  2.64  0.  0.  0.
266  2.65  0.  0.  0.
267  2.66  0.  0.  0.
268  2.67  0.  0.  0.
269  2.68  0.  0.  0.
270  2.69  0.  0.  0.
271  2.70  0.  0.  0.
272  2.71  0.  0.  0.
273  2.72  0.  0.  0.
274  2.73  0.  0.  0.
275  2.74  0.  0.  0.
276  2.75  0.  0.  0.
277  2.76  0.  0.  0.
278  2.77  0.  0.  0.
279  2.78  0.  0.  0.
280  2.79  0.  0.  0.
281  2.80  0.  0.  0.
282  2.81  0.  0.  0.
283  2.82  0.  0.  0.
284  2.83  0.  0.  0.
285  2.84  0.  0.  0.
286  2.85  0.  0.  0.
287  2.86  0.  0.  0.
288  2.87  0.  0.  0.
289  2.88  0.  0.  0.
290  2.89  0.  0.  0.
291  2.90  0.  0.  0.
292  2.91  0.  0.  0.
293  2.92  0.  0.  0.
294  2.93  0.  0.  0.
295  2.94  0.  0.  0.
296  2.95  0.  0.  0.
297  2.96  0.  0.  0.
298  2.97  0.  0.  0.
299  2.98  0.  0.  0.
300  2.99  0.  0.  0.
301  3.00  0.  0.  0.
302  3.01  0.  0.  0.
303  3.02  0.  0.  0.
304  3.03  0.  0.  0.
305  3.04  0.  0.  0.
306  3.05  0.  0.  0.
307  3.06  0.  0.  0.
308  3.07  0.  0.  0.
309  3.08  0.  0.  0.
310  3.09  0.  0.  0.
311  3.10  0.  0.  0.
312  3.11  0.  0.  0.
313  3.12  0.  0.  0.
314  3.13  0.  0.  0.
315  3.14  0.  0.  0.
316  3.15  0.  0.  0.
317  3.16  0.  0.  0.
318  3.17  0.  0.  0.
319  3.18  0.  0.  0.
320  3.19  0.  0.  0.
321  3.20  0.  0.  0.
322  3.21  0.  0.  0.
323  3.22  0.  0.  0.
324  3.23  0.  0.  0.
325  3.24  0.  0.  0.
326  3.25  0.  0.  0.
327  3.26  0.  0.  0.
328  3.27  0.  0.  0.
329  3.28  0.  0.  0.
330  3.29  0.  0.  0.
331  3.30  0.  0.  0.
332  3.31  0.  0.  0.
333  3.32  0.  0.  0.
334  3.33  0.  0.  0.
335  3.34  0.  0.  0.
336  3.35  0.  0.  0.
337  3.36  0.  0.  0.
338  3.37  0.  0.  0.
339  3.38  0.  0.  0.
340  3.39  0.  0.  0.
341  3.40  0.  0.  0.
342  3.41  0.  0.  0.
343  3.42  0.  0.  0.
344  3.43  0.  0.  0.
345  3.44  0.  0.  0.
346  3.45  0.  0.  0.
347  3.46  0.  0.  0.
348  3.47  0.  0.  0.
349  3.48  0.  0.  0.
350  3.49  0.  0.  0.
351  3.50  0.  0.  0.
352  3.51  0.  0.  0.
353  3.52  0.  0.  0.
354  3.53  0.  0.  0.
355  3.54  0.  0.  0.
356  3.55  0.  0.  0.
357  3.56  0.  0.  0.
358  3.57  0.  0.  0.
359  3.58  0.  0.  0.
360  3.59  0.  0.  0.
361  3.60  0.  0.  0.
362  3.61  0.  0.  0.
363  3.62  0.  0.  0.
364  3.63  0.  0.  0.
365  3.64  0.  0.  0.
366  3.65  0.  0.  0.
367  3.66  0.  0.  0.
368  3.67  0.  0.  0.
369  3.68  0.  0.  0.
370  3.69  0.  0.  0.
371  3.70  0.  0.  0.
372  3.71  0.  0.  0.
373  3.72  0.  0.  0.
374  3.73  0.  0.  0.
375  3.74  0.  0.  0.
376  3.75  0.  0.  0.
377  3.76  0.  0.  0.
378  3.77  0.  0.  0.
379  3.78  0.  0.  0.
380  3.79  0.  0.  0.
381  3.80  0.  0.  0.
382  3.81  0.  0.  0.
383  3.82  0.  0.  0.
384  3.83  0.  0.  0.
385  3.84  0.  0.  0.
386  3.85  0.  0.  0.
387  3.86  0.  0.  0.
388  3.87  0.  0.  0.
389  3.88  0.  0.  0.
390  3.89  0.  0.  0.
391  3.90  0.  0.  0.
392  3.91  0.  0.  0.
393  3.92  0.  0.  0.
394  3.93  0.  0.  0.
395  3.94  0.  0.  0.
396  3.95  0.  0.  0.
397  3.96  0.  0.  0.
398  3.97  0.  0.  0.
399  3.98  0.  0.  0.
400  3.99  0.  0.  0.
401  4.00  0.  0.  0.
402  4.01  0.  0.  0.
403  4.02  0.  0.  0.
404  4.03  0.  0.  0.
405  4.04  0.  0.  0.
406  4.05  0.  0.  0.
407  4.06  0.  0.  0.
408  4.07  0.  0.  0.
409  4.08  0.  0.  0.
410  4.09  0.  0.  0.
411  4.10  0.  0.  0.
412  4.11  0.  0.  0.
413  4.12  0.  0.  0.
414  4.13  0.  0.  0.
415  4.14  0.  0.  0.
416  4.15  0.  0.  0.
417  4.16  0.  0.  0.
418  4.17  0.  0.  0.
419  4.18  0.  0.  0.
420  4.19  0.  0.  0.
421  4.20  0.  0.  0.
422  4.21  0.  0.  0.
423  4.22  0.  0.  0.
424  4.23  0.  0.  0.
425  4.24  0.  0.  0.
426  4.25  0.  0.  0.
427  4.26  0.  0.  0.
428  4.27  0.  0.  0.
429  4.28  0.  0.  0.
430  4.29  0.  0.  0.
431  4.30  0.  0.  0.
432  4.31  0.  0.  0.
433  4.32  0.  0.  0.
434  4.33  0.  0.  0.
435  4.34  0.  0.  0.
436  4.35  0.  0.  0.
437  4.36  0.  0.  0.
438  4.37  0.  0.  0.
439  4.38  0.  0.  0.
440  4.39  0.  0.  0.
441  4.40  0.  0.  0.
442  4.41  0.  0.  0.
443  4.42  0.  0.  0.
444  4.43  0.  0.  0.
445  4.44  0.  0.  0.
446  4.45  0.  0.  0.
447  4.46  0.  0.  0.
448  4.47  0.  0.  0.
449  4.48  0.  0.  0.
450  4.49  0.  0.  0.
451  4.50  0.  0.  0.
452  4.51  0.  0.  0.
453  4.52  0.  0.  0.
454  4.53  0.  0.  0.
455  4.54  0.  0.  0.
456  4.55  0.  0.  0.
457  4.56  0.  0.  0.
458  4.57  0.  0.  0.
459  4.58  0.  0.  0.
460  4.59  0.  0.  0.
461  4.60  0.  0.  0.
462  4.61  0.  0.  0.
463  4.62  0.  0.  0.
464  4.63  0.  0.  0.
465  4.64  0.  0.  0.
466  4.65  0.  0.  0.
467  4.66  0.  0.  0.
468  4.67  0.  0.  0.
469  4.68  0.  0.  0.
470  4.69  0.  0.  0.
471  4.70  0.  0.  0.
472  4.71  0.  0.  0.
473  4.72  0.  0.  0.
474  4.73  0.  0.  0.
475  4.74  0.  0.  0.
476  4.75  0.  0.  0.
477  4.76  0.  0.  0.
478  4.77  0.  0.  0.
479  4.78  0.  0.  0.
480  4.79  0.  0.  0.
481  4.80  0.  0.  0.
482  4.81  0.  0.  0.
483  4.82  0.  0.  0.
484  4.83  0.  0.  0.
485  4.84  0.  0.  0.
486  4.85  0.  0.  0.
487  4.86  0.  0.  0.
488  4.87  0.  0.  0.
489  4.88  0.  0.  0.
490  4.89  0.  0.  0.
491  4.90  0.  0.  0.
492  4.91  0.  0.  0.
493  4.92  0.  0.  0.
494  4.93  0.  0.  0.
495  4.94  0.  0.  0.
496  4.95  0.  0.  0.
497  4.96  0.  0.  0.
498  4.97  0.  0.  0.
499  4.98  0.  0.  0.
500  4.99  0.  0.  0.
501  5.00  0.  0.  0.
502  5.01  0.  0.  0.
503  5.02  0.  0.  0.
504  5.03  0.  0.  0.
505  5.04  0.  0.  0.
506  5.05  0.  0.  0.
507  5.06  0.  0.  0.
508  5.07  0.  0.  0.
509  5.08  0.  0.  0.
510  5.09  0.  0.  0.
511  5.10  0.  0.  0.
512  5.11  0.  0.  0.
513  5.12  0.  0.  0.
514  5.13  0.  0.  0.
515  5.14  0.  0.  0.
516  5.15  0.  0.  0.
517  5.16  0.  0.  0.
518  5.17  0.  0.  0.
519  5.18  0.  0.  0.
520  5.19  0.  0.  0.
521  5.20  0.  0.  0.
522  5.21  0.  0.  0.
523  5.22  0.  0.  0.
524  5.23  0.  0.  0.
525  5.24  0.  0.  0.
526  5.25  0.  0.  0.
527  5.26  0.  0.  0.
528  5.27  0.  0.  0.
529  5.28  0.  0.  0.
530  5.29  0.  0.  0.
531  5.30  0.  0.  0.
532  5.31  0.  0.  0.
533  5.32  0.  0.  0.
534  5.33  0.  0.  0.
535  5.34  0.  0.  0.
536  5.35  0.  0.  0.
537  5.36  0.  0.  0.
538  5.37  0.  0.  0.
539  5.38  0.  0.  0.
540  5.39  0.  0.  0.
541  5.40  0.  0.  0.
542  5.41  0.  0.  0.
543  5.42  0.  0.  0.
544  5.43  0.  0.  0.
545  5.44  0.  0.  0.
546  5.45  0.  0.  0.
547  5.46  0.  0.  0.
548  5.47  0.  0.  0.
549  5.48  0.  0.  0.
550  5.49  0.  0.  0.
551  5.50  0.  0.  0.
552  5.51  0.  0.  0.
553  5.52  0.  0.  0.
554  5.53  0.  0.  0.
555  5.54  0.  0.  0.
556  5.55  0.  0.  0.
557  5.56  0.  0.  0.
558  5.57  0.  0.  0.
559  5.58  0.  0.  0.
560  5.59  0.  0.  0.
561  5.60  0.  0.  0.
562  5.61  0.  0.  0.
563  5.62  0.  0.  0.
564  5.63  0.  0.  0.
565  5.64  0.  0.  0.
566  5.65  0.  0.  0.
567  5.66  0.  0.  0.
568  5.67  0.  0.  0.
569  5.68  0.  0.  0.
570  5.69  0.  0.  0.
571  5.70  0.  0.  0.
572  5.71  0.  0.  0.
573  5.72  0.  0.  0.
574  5.73  0.  0.  0.
575  5.74  0.  0.  0.
576  5.75  0.  0.  0.
577  5.76  0.  0.  0.
578  5.77  0.  0.  0.
579  5.78  0.  0.  0.
580  5.79  0.  0.  0.
581  5.80  0.  0.  0.
582  5.81  0.  0.  0.
583  5.82  0.  0.  0.
584  5.83  0.  0.  0.
585  5.84  0.  0.  0.
586  5.85  0.  0.  0.
587  5.86  0.  0.  0.
588  5.87  0.  0.  0.
589  5.88  0.  0.  0.
590  5.89  0.  0.  0.
591  5.90  0.  0.  0.
592  5.91  0.  0.  0.
593  5.92  0.  0.  0.
594  5.93  0.  0.  0.
595  5.94  0.  0.  0.
596  5.95  0.  0.  0.
597  5.96  0.  0.  0.
598  5.97  0.  0.  0.
599  5.98  0.  0.  0.
600  5.99  0.  0.  0.
1                        -3.6407066411456E+00  4.3854694042676E-01 -6.8220551139160E-02
1  0.0000000000000E+00  8.6104309793278E-10  1.7711149630228E-08 -2.4320640029662E-08
2  1.0000000000000E-02  1.1375971393220E-03  6.2627354400992E-04 -3.9061454716456E-03
3  2.0000000000000E-02  4.5456253144792E-03  2.4807376946071E-03 -1.5573461031069E-02
4  3.0000000000000E-02  1.0209831392777E-02  5.4908443672457E-03 -3.4849378440879E-02
5  4.0000000000000E-02  1.8106581638445E-02  9.5374074524979E-03 -6.1482250752973E-02
6  5.0000000000000E-02  2.8203042198335E-02  1.4457157321700E-02 -9.5125252650126E-02
7  6.0000000000000E-02  4.0457428329196E-02  2.0046244806706E-02 -1.3534174225388E-01
8  7.0000000000000E-02  5.4819318987936E-02  2.6064624072186E-02 -1.8161198801449E-01
9  8.0000000000000E-02  7.1230032545219E-02  3.2241226087747E-02 -2.3334113997813E-01
10  9.0000000000000E-02  8.9623058597147E-02  3.8279818470597E-02 -2.8986830272845E-01
11  1.0000000000000E-01  1.0992454015320E-01  4.3865433624843E-02 -3.5047654804788E-01
12  1.1000000000000E-01  1.3205379988323E-01  4.8671235632714E-02 -4.1440368920590E-01
13  1.2000000000000E-01  1.5592390362206E-01  5.2365687482096E-02 -4.8085362606031E-01
14  1.3000000000000E-01  1.8144225396489E-01  5.4619874125843E-02 -5.4900806109287E-01
15  1.4000000000000E-01  2.0851120654611E-01  5.5114833681206E-02 -6.1803838125921E-01
16  1.5000000000000E-01  2.3702870148133E-01  5.3548748857315E-02 -6.8711749920327E-01
17  1.6000000000000E-01  2.6688890246798E-01  4.9643853449917E-02 -7.5543144998459E-01
18  1.7000000000000E-01  2.9798283618217E-01  4.3152914408829E-02 -8.2219054592715E-01
19  1.8000000000000E-01  3.3019902487473E-01  3.3865158452817E-02 -8.8663990238310E-01
20  1.9000000000000E-01  3.6342410545038E-01  2.1611523307331E-02 -9.4806916090079E-01
21  2.0000000000000E-01  3.9754342880237E-01  6.2691271504360E-03 -1.0058212532124E+00
22  2.1000000000000E-01  4.3244163376065E-01 -1.2235134499617E-02 -1.0593000692695E+00
23  2.2000000000000E-01  4.6800319068078E-01 -3.3921937751550E-02 -1.1079769148526E+00
24  2.3000000000000E-01  5.0411291044065E-01 -5.8757879515328E-02 -1.1513956686174E+00
25  2.4000000000000E-01  5.4065641540692E-01 -8.6654861201388E-02 -1.1891765743252E+00
26  2.5000000000000E-01  5.7752056976606E-01 -1.1747052053899E-01 -1.2210186309271E+00
27  2.6000000000000E-01  6.1459386747012E-01 -1.5100970411217E-01 -1.2467005705845E+00
28  2.7000000000000E-01  6.5176677690706E-01 -1.8702695236584E-01 -1.2660804420811E+00
29  2.8000000000000E-01  6.8893204225253E-01 -2.2522994855921E-01 -1.2790938438585E+00
30  2.9000000000000E-01  7.2598494227807E-01 -2.6528386384564E-01 -1.2857508765724E+00
31  3.0000000000000E-01  7.6282350816360E-01 -3.0681651272762E-01 -1.2861319091012E+00
32  3.1000000000000E-01  7.9934870257468E-01 -3.4942421693318E-01 -1.2803822738840E+00
33  3.2000000000000E-01  8.3546456290397E-01 -3.9267826161474E-01 -1.2687060268840E+00
34  3.3000000000000E-01  8.7107831213006E-01 -4.3613181596739E-01 -1.2513589239880E+00
35  3.4000000000000E-01  9.0610044120394E-01 -4.7932718114307E-01 -1.2286407789556E+00
36  3.5000000000000E-01  9.4044476722718E-01 -5.2180322188525E-01 -1.2008873778534E+00
37  3.6000000000000E-01  9.7402847192986E-01 -5.6310283476092E-01 -1.1684621310796E+00
38  3.7000000000000E-01  1.0067721250864E+00 -6.0278030529639E-01 -1.1317476464903E+00
39  3.8000000000000E-01  1.0385996975231E+00 -6.4040840874480E-01 -1.0911374057403E+00
40  3.9000000000000E-01  1.0694385682743E+00 -6.7558511458378E-01 -1.0470277208029E+00
41  4.0000000000000E-01  1.0992195302345E+00 -7.0793976305554E-01 -9.9981013883869E-01
42  4.1000000000000E-01  1.1278767983444E+00 -7.3713859295724E-01 -9.4986445135123E-01
43  4.2000000000000E-01  1.1553480239384E+00 -7.6288951325454E-01 -8.9755244813797E-01
44  4.3000000000000E-01  1.1815743183882E+00 -7.8494602665626E-01 -8.4321253826206E-01
45  4.4000000000000E-01  1.2065002886084E+00 -8.0311023074730E-01 -7.8715533950237E-01
46  4.5000000000000E-01  1.2300740863587E+00 -8.1723484127996E-01 -7.2966031492467E-01
47  4.6000000000000E-01  1.2522474726033E+00 -8.2722420239078E-01 -6.7097351082638E-01
48  4.7000000000000E-01  1.2729758974764E+00 -8.3303426943618E-01 -6.1130642484949E-01
49  4.8000000000000E-01  1.2922185956859E+00 -8.3467157140662E-01 -5.5083600705243E-01
50  4.9000000000000E-01  1.3099386964601E+00 -8.3219118105302E-01 -4.8970577072906E-01
51  5.0000000000000E-01  1.3261033464450E+00 -8.2569374151683E-01 -4.2802796429070E-01
52  5.1000000000000E-01  1.3406838432892E+00 -8.1532161797260E-01 -3.6588673112577E-01
53  5.2000000000000E-01  1.3536557770338E+00 -8.0125426116941E-01 -3.0334216152020E-01
54  5.3000000000000E-01  1.3649991758733E+00 -7.8370288641623E-01 -2.4043511994527E-01
55  5.4000000000000E-01  1.3746986523762E+00 -7.6290458615170E-01 -1.7719271273348E-01
56  5.5000000000000E-01  1.3827435458653E+00 -7.3911600646619E-01 -1.1363424575585E-01
57  5.6000000000000E-01  1.3891280563712E+00 -7.1260672754249E-01 -4.9777509520844E-02
58  5.7000000000000E-01  1.3938513653914E+00 -6.8365249474483E-01  1.4354779600506E-02
59  5.8000000000000E-01  1.3969177386173E+00 -6.5252845085749E-01  7.8728558350350E-02
60  5.9000000000000E-01  1.3983366058391E+00 -6.1950252066292E-01  1.4329219331641E-01
61  6.0000000000000E-01  1.3981226134027E+00 -5.8482909661770E-01  2.0797063034660E-01
62  6.1000000000000E-01  1.3962956448709E+00 -5.4874316886252E-01  2.7266008511386E-01
63  6.2000000000000E-01  1.3928808059311E+00 -5.1145503427710E-01  3.3722343311537E-01
64  6.3000000000000E-01  1.3879083700884E+00 -4.7314570791213E-01  4.0148644366368E-01