Fr    ONCVPSP-4.0.1  r_core=   1.60257   1.60257   1.75302   1.65123
87.0000     27.0000      220206    zatom,zion,pspd
8      11   3     4   600     0    pspcod,pspxc,lmax,lloc,mmax,r2well
5.99000000  5.00000000  0.00000000    rchrg fchrg qchrg
3     2     2     2     0    nproj
1     1           extension_switch
0                         6.9341869382302E+00 -3.2834767134896E+00  8.4474319200563E-01
1  0.0000000000000E+00 -1.2663239568056E-08 -1.4514806023769E-10 -2.8473705782073E-08
2  1.0000000000000E-02  1.1017316453046E-01  3.5393532561301E-02  5.5634002357779E-02
3  2.0000000000000E-02  2.1958941190487E-01  7.0753590146174E-02  1.1017052019208E-01
4  3.0000000000000E-02  3.2750160784762E-01  1.0604682824306E-01  1.6253214789442E-01
5  4.0000000000000E-02  4.3318201148356E-01  1.4124016127257E-01  2.1168125466516E-01
6  5.0000000000000E-02  5.3593154446720E-01  1.7630088709768E-01  2.5663892185064E-01
7  6.0000000000000E-02  6.3508855628388E-01  2.1119680569301E-01  2.9650276101140E-01
8  7.0000000000000E-02  7.3003693301073E-01  2.4589633020047E-01  3.3046327387384E-01
9  8.0000000000000E-02  8.2021340948830E-01  2.8036858874389E-01  3.5781844379111E-01
10  9.0000000000000E-02  9.0511396020136E-01  3.1458351555143E-01  3.7798628285289E-01
11  1.0000000000000E-01  9.8429916189491E-01  3.4851193013774E-01  3.9051509865633E-01
12  1.1000000000000E-01  1.0573984407048E+00  3.8212560352529E-01  3.9509128918597E-01
13  1.2000000000000E-01  1.1241131379695E+00  4.1539731073021E-01  3.9154452237254E-01
14  1.3000000000000E-01  1.1842183514839E+00  4.4830086899865E-01  3.7985020775392E-01
15  1.4000000000000E-01  1.2375635323149E+00  4.8081116154936E-01  3.6012922023953E-01
16  1.5000000000000E-01  1.2840718409481E+00  5.1290414685201E-01  3.3264488924719E-01
17  1.6000000000000E-01  1.3237382900243E+00  5.4455685374349E-01  2.9779731938450E-01
18  1.7000000000000E-01  1.3566267237754E+00  5.7574736295022E-01  2.5611516034871E-01
19  1.8000000000000E-01  1.3828657060415E+00  6.0645477583911E-01  2.0824499280567E-01
20  1.9000000000000E-01  1.4026434090230E+00  6.3665917145757E-01  1.5493854272316E-01
21  2.0000000000000E-01  1.4162016132795E+00  6.6634155313946E-01  9.7037978081076E-02
22  2.1000000000000E-01  1.4238289456077E+00  6.9548378614563E-01  3.5459578262342E-02
23  2.2000000000000E-01  1.4258534949703E+00  7.2406852796982E-01 -2.8823902960517E-02
24  2.3000000000000E-01  1.4226349573760E+00  7.5207915307131E-01 -9.4801835675902E-02
25  2.4000000000000E-01  1.4145564683193E+00  7.7949967389167E-01 -1.6144491070269E-01
26  2.5000000000000E-01  1.4020162859312E+00  8.0631466007262E-01 -2.2772456215502E-01
27  2.6000000000000E-01  1.3854194893132E+00  8.3250915781443E-01 -2.9263223977163E-01
28  2.7000000000000E-01  1.3651698545960E+00  8.5806861129885E-01 -3.5519815942156E-01
29  2.8000000000000E-01  1.3416620661542E+00  8.8297878804828E-01 -4.1450917177211E-01
30  2.9000000000000E-01  1.3152744122213E+00  9.0722571000350E-01 -4.6972540765205E-01
31  3.0000000000000E-01  1.2863621030821E+00  9.3079559197966E-01 -5.2009538377964E-01
32  3.1000000000000E-01  1.2552513362896E+00  9.5367478900458E-01 -5.6496928372561E-01
33  3.2000000000000E-01  1.2222342172608E+00  9.7584975385950E-01 -6.0381016561072E-01
34  3.3000000000000E-01  1.1875646254790E+00  9.9730700593291E-01 -6.3620288935822E-01
35  3.4000000000000E-01  1.1514550967400E+00  1.0180331122677E+00 -6.6186060149658E-01
36  3.5000000000000E-01  1.1140747708267E+00  1.0380146814344E+00 -6.8062866364787E-01
37  3.6000000000000E-01  1.0755484321150E+00  1.0572383706039E+00 -6.9248596097032E-01
38  3.7000000000000E-01  1.0359566483292E+00  1.0756909059267E+00 -6.9754357798116E-01
39  3.8000000000000E-01  9.9533699043129E-01  1.0933591160595E+00 -6.9604088034541E-01
40  3.9000000000000E-01  9.5368629488607E-01  1.1102299784108E+00 -6.8833909139340E-01
41  4.0000000000000E-01  9.1096390871319E-01  1.1262906774272E+00 -6.7491250034284E-01
42  4.1000000000000E-01  8.6709583823205E-01  1.1415286739925E+00 -6.5633748452893E-01
43  4.2000000000000E-01  8.2197970460080E-01  1.1559317847911E+00 -6.3327956951567E-01
44  4.3000000000000E-01  7.7549039348774E-01  1.1694882702818E+00 -6.0647878798909E-01
45  4.4000000000000E-01  7.2748627278932E-01  1.1821869297507E+00 -5.7673363012758E-01
46  4.5000000000000E-01  6.7781584147683E-01  1.1940172017646E+00 -5.4488390411265E-01
47  4.6000000000000E-01  6.2632466460481E-01  1.2049692682296E+00 -5.1179284512650E-01
48  4.7000000000000E-01  5.7286244439432E-01  1.2150341601768E+00 -4.7832882422564E-01
49  4.8000000000000E-01  5.1729007518717E-01  1.2242038633511E+00 -4.4534701468629E-01
50  4.9000000000000E-01  4.5948653098012E-01  1.2324714216674E+00 -4.1367137269643E-01
51  5.0000000000000E-01  3.9935543814605E-01  1.2398310366264E+00 -3.8407728169268E-01
52  5.1000000000000E-01  3.3683119273778E-01  1.2462781608403E+00 -3.5727519539138E-01
53  5.2000000000000E-01  2.7188449129228E-01  1.2518095839187E+00 -3.3389559396686E-01
54  5.3000000000000E-01  2.0452715610298E-01  1.2564235090904E+00 -3.1447554132562E-01
55  5.4000000000000E-01  1.3481615024883E-01  1.2601196190977E+00 -2.9944709956522E-01
56  5.5000000000000E-01  6.2856693965329E-02  1.2628991300845E+00 -2.8912782013847E-01
57  5.6000000000000E-01 -1.1195588123282E-02  1.2647648324080E+00 -2.8371349071081E-01
58  5.7000000000000E-01 -8.7133540179742E-02  1.2657211175353E+00 -2.8327327300143E-01
59  5.8000000000000E-01 -1.6469839990376E-01  1.2657739904262E+00 -2.8774732089922E-01
60  5.9000000000000E-01 -2.4358078542999E-01  1.2649310670610E+00 -2.9694692074542E-01
61  6.0000000000000E-01 -3.2342273426612E-01  1.2632015570316E+00 -3.1055714778305E-01
62  6.1000000000000E-01 -4.0382076380075E-01  1.2605962313740E+00 -3.2814198531663E-01
63  6.2000000000000E-01 -4.8432990325490E-01  1.2571273760805E+00 -3.4915180699352E-01
64  6.3000000000000E-01 -5.6446862838215E-01  1.2528087319763E+00 -3.7293307868729E-01
65  6.4000000000000E-01 -6.4372461308600E-01  1.2476554218818E+00 -3.9874009553951E-01
66  6.5000000000000E-01 -7.2156119674070E-01  1.2416838662015E+00 -4.2574853255512E-01
67  6.6000000000000E-01 -7.9742445265307E-01  1.2349116882751E+00 -4.5307055441519E-01
68  6.7000000000000E-01 -8.7075073202567E-01  1.2273576110003E+00 -4.7977120244653E-01
69  6.8000000000000E-01 -9.4097454916793E-01  1.2190413463801E+00 -5.0488575444729E-01
70  6.9000000000000E-01 -1.0075366676938E+00  1.2099834797612E+00 -5.2743773668027E-01
71  7.0000000000000E-01 -1.0698922441277E+00  1.2002053506115E+00 -5.4645725705448E-01
72  7.1000000000000E-01 -1.1275188847555E+00  1.1897289317316E+00 -5.6099932446120E-01
73  7.2000000000000E-01 -1.1799244736804E+00  1.1785767088094E+00 -5.7016182141701E-01
74  7.3000000000000E-01 -1.2266546348119E+00  1.1667715622024E+00 -5.7310280549295E-01
75  7.4000000000000E-01 -1.2672996977984E+00  1.1543366527803E+00 -5.6905682924475E-01
76  7.5000000000000E-01 -1.3015010475564E+00  1.1412953135681E+00 -5.5734998818210E-01
77  7.6000000000000E-01 -1.3289567488239E+00  1.1276709488114E+00 -5.3741343128310E-01
78  7.7000000000000E-01 -1.3494263508394E+00  1.1134869419370E+00 -5.0879509815397E-01
79  7.8000000000000E-01 -1.3627347925213E+00  1.0987665737061E+00 -4.7116948054057E-01
80  7.9000000000000E-01 -1.3687753450990E+00  1.0835329516578E+00 -4.2434524285426E-01
81  8.0000000000000E-01 -1.3675115466843E+00  1.0678089517264E+00 -3.6827057593922E-01
82  8.1000000000000E-01 -1.3589781014318E+00  1.0516171726799E+00 -3.0303619972387E-01
83  8.2000000000000E-01 -1.3432807343635E+00  1.0349799037853E+00 -2.2887597287128E-01
84  8.3000000000000E-01 -1.3205950112770E+00  1.0179191058539E+00 -1.4616511026983E-01
85  8.4000000000000E-01 -1.2911641510678E+00  1.0004564055699E+00 -5.5416051397797E-02
86  8.5000000000000E-01 -1.2552958749526E+00  9.8261310275013E-01  4.2727936519818E-02
87  8.6000000000000E-01 -1.2133583531567E+00  9.6441018994356E-01  1.4750129780180E-01
88  8.7000000000000E-01 -1.1657753243553E+00  9.4586838354369E-01  2.5802671117113E-01
89  8.8000000000000E-01 -1.1130204762654E+00  9.2700816536900E-01  3.7332740454137E-01
90  8.9000000000000E-01 -1.0556111870649E+00  9.0784983346862E-01  4.9234104121526E-01
91  9.0000000000000E-01 -9.9410173658250E-01  8.8841356073301E-01  6.1393493247895E-01
92  9.1000000000000E-01 -9.2907610331826E-01  8.6871945973813E-01  7.3692231181707E-01
93  9.2000000000000E-01 -8.6114046823198E-01  8.4878765212839E-01  8.6007939123724E-01
94  9.3000000000000E-01 -7.9091554881847E-01  8.2863834075029E-01  9.8216291067004E-01
95  9.4000000000000E-01 -7.1902888728103E-01  8.0829188268699E-01  1.1019278871726E+00
96  9.5000000000000E-01 -6.4610721465131E-01  7.8776886131513E-01  1.2181452717034E+00
97  9.6000000000000E-01 -5.7276900857681E-01  7.6709015550932E-01  1.3296192274257E+00
98  9.7000000000000E-01 -4.9961735632582E-01  7.4627700415690E-01  1.4352037546326E+00
99  9.8000000000000E-01 -4.2723322651044E-01  7.2535106421534E-01  1.5338184031690E+00
100  9.9000000000000E-01 -3.5616924329461E-01  7.0433446064500E-01  1.6244628332686E+00
101  1.0000000000000E+00 -2.8694404566596E-01  6.8324982668054E-01  1.7062300095750E+00
102  1.0100000000000E+00 -2.2003730194699E-01  6.6212033306138E-01  1.7783178402701E+00
103  1.0200000000000E+00 -1.5588543637543E-01  6.4096970502384E-01  1.8400391031188E+00
104  1.0300000000000E+00 -9.4878110579123E-02  6.1982222606086E-01  1.8908295322404E+00
105  1.0400000000000E+00 -3.7355488384405E-02  5.9870272767723E-01  1.9302539729220E+00
106  1.0500000000000E+00  1.6393702089102E-02  5.7763656460403E-01  1.9580105461636E+00
107  1.0600000000000E+00  6.6133309367386E-02  5.5664957518303E-01  1.9739327991788E+00
108  1.0700000000000E+00  1.1168011675447E-01  5.3576802688480E-01  1.9779898522359E+00
109  1.0800000000000E+00  1.5290344492419E-01  5.1501854718022E-01  1.9702845853192E+00
110  1.0900000000000E+00  1.8972403838764E-01  4.9442804023857E-01  1.9510499395423E+00
111  1.1000000000000E+00  2.2211228627207E-01  4.7402359017394E-01  1.9206434376400E+00
112  1.1100000000000E+00  2.5008583747916E-01  4.5383235179904E-01  1.8795400544985E+00
113  1.1200000000000E+00  2.7370667848610E-01  4.3388143007081E-01  1.8283235924345E+00
114  1.1300000000000E+00  2.9307774859413E-01  4.1419774961851E-01  1.7676767361405E+00
115  1.1400000000000E+00  3.0833917232589E-01  3.9480791593214E-01  1.6983699788876E+00
116  1.1500000000000E+00  3.1966419181552E-01  3.7573806995132E-01  1.6212496242875E+00
117  1.1600000000000E+00  3.2725488345722E-01  3.5701373793237E-01  1.5372250767083E+00
118  1.1700000000000E+00  3.3133774279460E-01  3.3865967857869E-01  1.4472556381664E+00
119  1.1800000000000E+00  3.3215921969068E-01  3.2069972949899E-01  1.3523370302571E+00
120  1.1900000000000E+00  3.2998128235827E-01  3.0315665510420E-01  1.2534878565640E+00
121  1.2000000000000E+00  3.2507708389851E-01  2.8605199806903E-01  1.1517362140966E+00
122  1.2100000000000E+00  3.1772679883265E-01  2.6940593646695E-01  1.0481066520119E+00
123  1.2200000000000E+00  3.0821368980640E-01  2.5323714863726E-01  9.4360766235418E-01
124  1.2300000000000E+00  2.9682045641622E-01  2.3756268776189E-01  8.3921987117843E-01
125  1.2400000000000E+00  2.8382590920101E-01  2.2239786801836E-01  7.3588507971268E-01
126  1.2500000000000E+00  2.6950200233596E-01  2.0775616403397E-01  6.3449628428837E-01
127  1.2600000000000E+00  2.5411124883224E-01  1.9364912520004E-01  5.3588878142002E-01
128  1.2700000000000E+00  2.3790453218014E-01  1.8008630621282E-01  4.4083244085217E-01
129  1.2800000000000E+00  2.2111931858471E-01  1.6707521499403E-01  3.5002520506005E-01
130  1.2900000000000E+00  2.0397826450352E-01  1.5462127891213E-01  2.6408784924585E-01
131  1.3000000000000E+00  1.8668820519757E-01  1.4272782997785E-01  1.8356001153237E-01
132  1.3100000000000E+00  1.6943950162460E-01  1.3139610942710E-01  1.0889747925556E-01
133  1.3200000000000E+00  1.5240571542495E-01  1.2062529183653E-01  4.0470694501892E-02
134  1.3300000000000E+00  1.3574357505381E-01  1.1041252864481E-01 -2.1435579397742E-02
135  1.3400000000000E+00  1.1959319034858E-01  1.0075301067749E-01 -7.6621508703997E-02
136  1.3500000000000E+00  1.0407846815197E-01  9.1640049002958E-02 -1.2497045367621E-01
137  1.3600000000000E+00  8.9307677981059E-02  8.3065173182249E-02 -1.6644635881191E-01
138  1.3700000000000E+00  7.5374114201453E-02  7.5018245720752E-02 -2.0109039494973E-01
139  1.3800000000000E+00  6.2356799697345E-02  6.7487591288073E-02 -2.2901699078284E-01
140  1.3900000000000E+00  5.0321175599998E-02  6.0460139048119E-02 -2.5040940042140E-01
141  1.4000000000000E+00  3.9319722173971E-02  5.3921576235779E-02 -2.6551496042891E-01
142  1.4100000000000E+00  2.9392457368688E-02  4.7856510934414E-02 -2.7464019420257E-01
143  1.4200000000000E+00  2.0567261766326E-02  4.2248641848921E-02 -2.7814592379949E-01
144  1.4300000000000E+00  1.2859981529983E-02  3.7080932738165E-02 -2.7644254940044E-01
145  1.4400000000000E+00  6.2742643894360E-03  3.2335789066768E-02 -2.6998565475995E-01
146  1.4500000000000E+00  8.0108756567233E-04  2.7995234362228E-02 -2.5927209332836E-01
147  1.4600000000000E+00 -3.5820593350464E-03  2.4041083719738E-02 -2.4483670452183E-01
148  1.4700000000000E+00 -6.9123691056407E-03  2.0455111884110E-02 -2.2724980297117E-01
149  1.4800000000000E+00 -9.2433190098166E-03  1.7219213336013E-02 -2.0711558000656E-01
150  1.4900000000000E+00 -1.0646700771286E-02  1.4315551927051E-02 -1.8507153198070E-01
151  1.5000000000000E+00 -1.1215075350737E-02  1.1726698253065E-02 -1.6178896494477E-01
152  1.5100000000000E+00 -1.1064017715168E-02  9.4357604618742E-03 -1.3797251068896E-01
153  1.5200000000000E+00 -1.0324460556327E-02  7.4266784834383E-03 -1.1432788297308E-01
154  1.5300000000000E+00 -9.1431345543451E-03  5.6835102015247E-03 -9.1539742498926E-02
155  1.5400000000000E+00 -7.6753164333217E-03  4.1909022167983E-03 -7.0253884585114E-02
156  1.5500000000000E+00 -6.0438217541407E-03  2.9381220674358E-03 -5.1006217272237E-02
157  1.5600000000000E+00 -4.3765374470763E-03  1.9159691151464E-03 -3.4279028750329E-02
158  1.5700000000000E+00 -2.8051592255682E-03  1.1168513808753E-03 -2.0496658964303E-02
159  1.5800000000000E+00 -1.4650673444283E-03  5.3504811777648E-04 -1.0026607610638E-02
160  1.5900000000000E+00 -4.8665732967116E-04  1.6447694563059E-04 -3.1327539912584E-03
161  1.6000000000000E+00 -3.6009370805307E-05  1.1263702017671E-05 -2.1734181743191E-04
162  1.6100000000000E+00  7.6041834332541E-06 -2.2928410372668E-06  4.4640286583925E-05
163  1.6200000000000E+00 -2.2955744146212E-06  7.1854780841743E-07 -1.3904178221073E-05
164  1.63  0. -0.  0.
165  1.64 -0. -0. -0.
166  1.65  0.  0.  0.
167  1.66  0.  0.  0.
168  1.67  0.  0.  0.
169  1.68  0.  0.  0.
170  1.69  0.  0.  0.
171  1.70  0.  0.  0.
172  1.71  0.  0.  0.
173  1.72  0.  0.  0.
174  1.73  0.  0.  0.
175  1.74  0.  0.  0.
176  1.75  0.  0.  0.
177  1.76  0.  0.  0.
178  1.77  0.  0.  0.
179  1.78  0.  0.  0.
180  1.79  0.  0.  0.
181  1.80  0.  0.  0.
182  1.81  0.  0.  0.
183  1.82  0.  0.  0.
184  1.83  0.  0.  0.
185  1.84  0.  0.  0.
186  1.85  0.  0.  0.
187  1.86  0.  0.  0.
188  1.87  0.  0.  0.
189  1.88  0.  0.  0.
190  1.89  0.  0.  0.
191  1.90  0.  0.  0.
192  1.91  0.  0.  0.
193  1.92  0.  0.  0.
194  1.93  0.  0.  0.
195  1.94  0.  0.  0.
196  1.95  0.  0.  0.
197  1.96  0.  0.  0.
198  1.97  0.  0.  0.
199  1.98  0.  0.  0.
200  1.99  0.  0.  0.
201  2.00  0.  0.  0.
202  2.01  0.  0.  0.
203  2.02  0.  0.  0.
204  2.03  0.  0.  0.
205  2.04  0.  0.  0.
206  2.05  0.  0.  0.
207  2.06  0.  0.  0.
208  2.07  0.  0.  0.
209  2.08  0.  0.  0.
210  2.09  0.  0.  0.
211  2.10  0.  0.  0.
212  2.11  0.  0.  0.
213  2.12  0.  0.  0.
214  2.13  0.  0.  0.
215  2.14  0.  0.  0.
216  2.15  0.  0.  0.
217  2.16  0.  0.  0.
218  2.17  0.  0.  0.
219  2.18  0.  0.  0.
220  2.19  0.  0.  0.
221  2.20  0.  0.  0.
222  2.21  0.  0.  0.
223  2.22  0.  0.  0.
224  2.23  0.  0.  0.
225  2.24  0.  0.  0.
226  2.25  0.  0.  0.
227  2.26  0.  0.  0.
228  2.27  0.  0.  0.
229  2.28  0.  0.  0.
230  2.29  0.  0.  0.
231  2.30  0.  0.  0.
232  2.31  0.  0.  0.
233  2.32  0.  0.  0.
234  2.33  0.  0.  0.
235  2.34  0.  0.  0.
236  2.35  0.  0.  0.
237  2.36  0.  0.  0.
238  2.37  0.  0.  0.
239  2.38  0.  0.  0.
240  2.39  0.  0.  0.
241  2.40  0.  0.  0.
242  2.41  0.  0.  0.
243  2.42  0.  0.  0.
244  2.43  0.  0.  0.
245  2.44  0.  0.  0.
246  2.45  0.  0.  0.
247  2.46  0.  0.  0.
248  2.47  0.  0.  0.
249  2.48  0.  0.  0.
250  2.49  0.  0.  0.
251  2.50  0.  0.  0.
252  2.51  0.  0.  0.
253  2.52  0.  0.  0.
254  2.53  0.  0.  0.
255  2.54  0.  0.  0.
256  2.55  0.  0.  0.
257  2.56  0.  0.  0.
258  2.57  0.  0.  0.
259  2.58  0.  0.  0.
260  2.59  0.  0.  0.
261  2.60  0.  0.  0.
262  2.61  0.  0.  0.
263  2.62  0.  0.  0.
264  2.63  0.  0.  0.
265  2.64  0.  0.  0.
266  2.65  0.  0.  0.
267  2.66  0.  0.  0.
268  2.67  0.  0.  0.
269  2.68  0.  0.  0.
270  2.69  0.  0.  0.
271  2.70  0.  0.  0.
272  2.71  0.  0.  0.
273  2.72  0.  0.  0.
274  2.73  0.  0.  0.
275  2.74  0.  0.  0.
276  2.75  0.  0.  0.
277  2.76  0.  0.  0.
278  2.77  0.  0.  0.
279  2.78  0.  0.  0.
280  2.79  0.  0.  0.
281  2.80  0.  0.  0.
282  2.81  0.  0.  0.
283  2.82  0.  0.  0.
284  2.83  0.  0.  0.
285  2.84  0.  0.  0.
286  2.85  0.  0.  0.
287  2.86  0.  0.  0.
288  2.87  0.  0.  0.
289  2.88  0.  0.  0.
290  2.89  0.  0.  0.
291  2.90  0.  0.  0.
292  2.91  0.  0.  0.
293  2.92  0.  0.  0.
294  2.93  0.  0.  0.
295  2.94  0.  0.  0.
296  2.95  0.  0.  0.
297  2.96  0.  0.  0.
298  2.97  0.  0.  0.
299  2.98  0.  0.  0.
300  2.99  0.  0.  0.
301  3.00  0.  0.  0.
302  3.01  0.  0.  0.
303  3.02  0.  0.  0.
304  3.03  0.  0.  0.
305  3.04  0.  0.  0.
306  3.05  0.  0.  0.
307  3.06  0.  0.  0.
308  3.07  0.  0.  0.
309  3.08  0.  0.  0.
310  3.09  0.  0.  0.
311  3.10  0.  0.  0.
312  3.11  0.  0.  0.
313  3.12  0.  0.  0.
314  3.13  0.  0.  0.
315  3.14  0.  0.  0.
316  3.15  0.  0.  0.
317  3.16  0.  0.  0.
318  3.17  0.  0.  0.
319  3.18  0.  0.  0.
320  3.19  0.  0.  0.
321  3.20  0.  0.  0.
322  3.21  0.  0.  0.
323  3.22  0.  0.  0.
324  3.23  0.  0.  0.
325  3.24  0.  0.  0.
326  3.25  0.  0.  0.
327  3.26  0.  0.  0.
328  3.27  0.  0.  0.
329  3.28  0.  0.  0.
330  3.29  0.  0.  0.
331  3.30  0.  0.  0.
332  3.31  0.  0.  0.
333  3.32  0.  0.  0.
334  3.33  0.  0.  0.
335  3.34  0.  0.  0.
336  3.35  0.  0.  0.
337  3.36  0.  0.  0.
338  3.37  0.  0.  0.
339  3.38  0.  0.  0.
340  3.39  0.  0.  0.
341  3.40  0.  0.  0.
342  3.41  0.  0.  0.
343  3.42  0.  0.  0.
344  3.43  0.  0.  0.
345  3.44  0.  0.  0.
346  3.45  0.  0.  0.
347  3.46  0.  0.  0.
348  3.47  0.  0.  0.
349  3.48  0.  0.  0.
350  3.49  0.  0.  0.
351  3.50  0.  0.  0.
352  3.51  0.  0.  0.
353  3.52  0.  0.  0.
354  3.53  0.  0.  0.
355  3.54  0.  0.  0.
356  3.55  0.  0.  0.
357  3.56  0.  0.  0.
358  3.57  0.  0.  0.
359  3.58  0.  0.  0.
360  3.59  0.  0.  0.
361  3.60  0.  0.  0.
362  3.61  0.  0.  0.
363  3.62  0.  0.  0.
364  3.63  0.  0.  0.
365  3.64  0.  0.  0.
366  3.65  0.  0.  0.
367  3.66  0.  0.  0.
368  3.67  0.  0.  0.
369  3.68  0.  0.  0.
370  3.69  0.  0.  0.
371  3.70  0.  0.  0.
372  3.71  0.  0.  0.
373  3.72  0.  0.  0.
374  3.73  0.  0.  0.
375  3.74  0.  0.  0.
376  3.75  0.  0.  0.
377  3.76  0.  0.  0.
378  3.77  0.  0.  0.
379  3.78  0.  0.  0.
380  3.79  0.  0.  0.
381  3.80  0.  0.  0.
382  3.81  0.  0.  0.
383  3.82  0.  0.  0.
384  3.83  0.  0.  0.
385  3.84  0.  0.  0.
386  3.85  0.  0.  0.
387  3.86  0.  0.  0.
388  3.87  0.  0.  0.
389  3.88  0.  0.  0.
390  3.89  0.  0.  0.
391  3.90  0.  0.  0.
392  3.91  0.  0.  0.
393  3.92  0.  0.  0.
394  3.93  0.  0.  0.
395  3.94  0.  0.  0.
396  3.95  0.  0.  0.
397  3.96  0.  0.  0.
398  3.97  0.  0.  0.
399  3.98  0.  0.  0.
400  3.99  0.  0.  0.
401  4.00  0.  0.  0.
402  4.01  0.  0.  0.
403  4.02  0.  0.  0.
404  4.03  0.  0.  0.
405  4.04  0.  0.  0.
406  4.05  0.  0.  0.
407  4.06  0.  0.  0.
408  4.07  0.  0.  0.
409  4.08  0.  0.  0.
410  4.09  0.  0.  0.
411  4.10  0.  0.  0.
412  4.11  0.  0.  0.
413  4.12  0.  0.  0.
414  4.13  0.  0.  0.
415  4.14  0.  0.  0.
416  4.15  0.  0.  0.
417  4.16  0.  0.  0.
418  4.17  0.  0.  0.
419  4.18  0.  0.  0.
420  4.19  0.  0.  0.
421  4.20  0.  0.  0.
422  4.21  0.  0.  0.
423  4.22  0.  0.  0.
424  4.23  0.  0.  0.
425  4.24  0.  0.  0.
426  4.25  0.  0.  0.
427  4.26  0.  0.  0.
428  4.27  0.  0.  0.
429  4.28  0.  0.  0.
430  4.29  0.  0.  0.
431  4.30  0.  0.  0.
432  4.31  0.  0.  0.
433  4.32  0.  0.  0.
434  4.33  0.  0.  0.
435  4.34  0.  0.  0.
436  4.35  0.  0.  0.
437  4.36  0.  0.  0.
438  4.37  0.  0.  0.
439  4.38  0.  0.  0.
440  4.39  0.  0.  0.
441  4.40  0.  0.  0.
442  4.41  0.  0.  0.
443  4.42  0.  0.  0.
444  4.43  0.  0.  0.
445  4.44  0.  0.  0.
446  4.45  0.  0.  0.
447  4.46  0.  0.  0.
448  4.47  0.  0.  0.
449  4.48  0.  0.  0.
450  4.49  0.  0.  0.
451  4.50  0.  0.  0.
452  4.51  0.  0.  0.
453  4.52  0.  0.  0.
454  4.53  0.  0.  0.
455  4.54  0.  0.  0.
456  4.55  0.  0.  0.
457  4.56  0.  0.  0.
458  4.57  0.  0.  0.
459  4.58  0.  0.  0.
460  4.59  0.  0.  0.
461  4.60  0.  0.  0.
462  4.61  0.  0.  0.
463  4.62  0.  0.  0.
464  4.63  0.  0.  0.
465  4.64  0.  0.  0.
466  4.65  0.  0.  0.
467  4.66  0.  0.  0.
468  4.67  0.  0.  0.
469  4.68  0.  0.  0.
470  4.69  0.  0.  0.
471  4.70  0.  0.  0.
472  4.71  0.  0.  0.
473  4.72  0.  0.  0.
474  4.73  0.  0.  0.
475  4.74  0.  0.  0.
476  4.75  0.  0.  0.
477  4.76  0.  0.  0.
478  4.77  0.  0.  0.
479  4.78  0.  0.  0.
480  4.79  0.  0.  0.
481  4.80  0.  0.  0.
482  4.81  0.  0.  0.
483  4.82  0.  0.  0.
484  4.83  0.  0.  0.
485  4.84  0.  0.  0.
486  4.85  0.  0.  0.
487  4.86  0.  0.  0.
488  4.87  0.  0.  0.
489  4.88  0.  0.  0.
490  4.89  0.  0.  0.
491  4.90  0.  0.  0.
492  4.91  0.  0.  0.
493  4.92  0.  0.  0.
494  4.93  0.  0.  0.
495  4.94  0.  0.  0.
496  4.95  0.  0.  0.
497  4.96  0.  0.  0.
498  4.97  0.  0.  0.
499  4.98  0.  0.  0.
500  4.99  0.  0.  0.
501  5.00  0.  0.  0.
502  5.01  0.  0.  0.
503  5.02  0.  0.  0.
504  5.03  0.  0.  0.
505  5.04  0.  0.  0.
506  5.05  0.  0.  0.
507  5.06  0.  0.  0.
508  5.07  0.  0.  0.
509  5.08  0.  0.  0.
510  5.09  0.  0.  0.
511  5.10  0.  0.  0.
512  5.11  0.  0.  0.
513  5.12  0.  0.  0.
514  5.13  0.  0.  0.
515  5.14  0.  0.  0.
516  5.15  0.  0.  0.
517  5.16  0.  0.  0.
518  5.17  0.  0.  0.
519  5.18  0.  0.  0.
520  5.19  0.  0.  0.
521  5.20  0.  0.  0.
522  5.21  0.  0.  0.
523  5.22  0.  0.  0.
524  5.23  0.  0.  0.
525  5.24  0.  0.  0.
526  5.25  0.  0.  0.
527  5.26  0.  0.  0.
528  5.27  0.  0.  0.
529  5.28  0.  0.  0.
530  5.29  0.  0.  0.
531  5.30  0.  0.  0.
532  5.31  0.  0.  0.
533  5.32  0.  0.  0.
534  5.33  0.  0.  0.
535  5.34  0.  0.  0.
536  5.35  0.  0.  0.
537  5.36  0.  0.  0.
538  5.37  0.  0.  0.
539  5.38  0.  0.  0.
540  5.39  0.  0.  0.
541  5.40  0.  0.  0.
542  5.41  0.  0.  0.
543  5.42  0.  0.  0.
544  5.43  0.  0.  0.
545  5.44  0.  0.  0.
546  5.45  0.  0.  0.
547  5.46  0.  0.  0.
548  5.47  0.  0.  0.
549  5.48  0.  0.  0.
550  5.49  0.  0.  0.
551  5.50  0.  0.  0.
552  5.51  0.  0.  0.
553  5.52  0.  0.  0.
554  5.53  0.  0.  0.
555  5.54  0.  0.  0.
556  5.55  0.  0.  0.
557  5.56  0.  0.  0.
558  5.57  0.  0.  0.
559  5.58  0.  0.  0.
560  5.59  0.  0.  0.
561  5.60  0.  0.  0.
562  5.61  0.  0.  0.
563  5.62  0.  0.  0.
564  5.63  0.  0.  0.
565  5.64  0.  0.  0.
566  5.65  0.  0.  0.
567  5.66  0.  0.  0.
568  5.67  0.  0.  0.
569  5.68  0.  0.  0.
570  5.69  0.  0.  0.
571  5.70  0.  0.  0.
572  5.71  0.  0.  0.
573  5.72  0.  0.  0.
574  5.73  0.  0.  0.
575  5.74  0.  0.  0.
576  5.75  0.  0.  0.
577  5.76  0.  0.  0.
578  5.77  0.  0.  0.
579  5.78  0.  0.  0.
580  5.79  0.  0.  0.
581  5.80  0.  0.  0.
582  5.81  0.  0.  0.
583  5.82  0.  0.  0.
584  5.83  0.  0.  0.
585  5.84  0.  0.  0.
586  5.85  0.  0.  0.
587  5.86  0.  0.  0.
588  5.87  0.  0.  0.
589  5.88  0.  0.  0.
590  5.89  0.  0.  0.
591  5.90  0.  0.  0.
592  5.91  0.  0.  0.
593  5.92  0.  0.  0.
594  5.93  0.  0.  0.
595  5.94  0.  0.  0.
596  5.95  0.  0.  0.
597  5.96  0.  0.  0.
598  5.97  0.  0.  0.
599  5.98  0.  0.  0.
600  5.99  0.  0.  0.
1                        -3.5352000120883E+00  1.2616251518111E+00
1  0.0000000000000E+00  1.4175321472187E-09  2.1921011755799E-08
2  1.0000000000000E-02  1.1692679458521E-03  1.2537118439850E-03
3  2.0000000000000E-02  4.6714601927978E-03  4.9819003509997E-03
4  3.0000000000000E-02  1.0489795375435E-02  1.1086382172519E-02
5  4.0000000000000E-02  1.8596481743261E-02  1.9405697835616E-02
6  5.0000000000000E-02  2.8952980060151E-02  2.9718335733021E-02
7  6.0000000000000E-02  4.1510365942602E-02  4.1747156292578E-02
8  7.0000000000000E-02  5.6209786043922E-02  5.5164929053417E-02
9  8.0000000000000E-02  7.2983001074028E-02  6.9600873455139E-02
10  9.0000000000000E-02  9.1753007357358E-02  8.4648074403072E-02
11  1.0000000000000E-01  1.1243472749828E-01  9.9871626500045E-02
12  1.1000000000000E-01  1.3493575976493E-01  1.1481734657426E-01
13  1.2000000000000E-01  1.5915717503599E-01  1.2902088306887E-01
14  1.3000000000000E-01  1.8499434959341E-01  1.4201704320943E-01
15  1.4000000000000E-01  2.1233782169791E-01  1.5334915478272E-01
16  1.5000000000000E-01  2.4107415975735E-01  1.6257827892347E-01
17  1.6000000000000E-01  2.7108682999244E-01  1.6929209352220E-01
18  1.7000000000000E-01  3.0225705181598E-01  1.7311327366888E-01
19  1.8000000000000E-01  3.3446462966383E-01  1.7370720579881E-01
20  1.9000000000000E-01  3.6758875073524E-01  1.7078888569793E-01
21  2.0000000000000E-01  4.0150873900303E-01  1.6412886698609E-01
22  2.1000000000000E-01  4.3610475692023E-01  1.5355814579489E-01
23  2.2000000000000E-01  4.7125844745736E-01  1.3897188870932E-01
24  2.3000000000000E-01  5.0685351042901E-01  1.2033193421897E-01
25  2.4000000000000E-01  5.4277620848206E-01  9.7668022460501E-02
26  2.5000000000000E-01  5.7891579959322E-01  7.1077733435476E-02
27  2.6000000000000E-01  6.1516489442919E-01  4.0725139646582E-02
28  2.7000000000000E-01  6.5141973843048E-01  6.8382046930561E-03
29  2.8000000000000E-01  6.8758041995785E-01 -3.0295015708693E-02
30  2.9000000000000E-01  7.2355100726042E-01 -7.0331290064814E-02
31  3.0000000000000E-01  7.5923961835799E-01 -1.1287814248963E-01
32  3.1000000000000E-01  7.9455842915145E-01 -1.5750067681999E-01
33  3.2000000000000E-01  8.2942362616002E-01 -2.0372915363232E-01
34  3.3000000000000E-01  8.6375531121200E-01 -2.5106716567779E-01
35  3.4000000000000E-01  8.9747736616899E-01 -2.9900024573380E-01
36  3.5000000000000E-01  9.3051728632809E-01 -3.4700473272779E-01
37  3.6000000000000E-01  9.6280599151243E-01 -3.9455671738713E-01
38  3.7000000000000E-01  9.9427762402139E-01 -4.4114088769741E-01
39  3.8000000000000E-01  1.0248693425664E+00 -4.8625909713497E-01
40  3.9000000000000E-01  1.0545211210686E+00 -5.2943848492154E-01
41  4.0000000000000E-01  1.0831755607468E+00 -5.7023898730939E-01
42  4.1000000000000E-01  1.1107777232914E+00 -6.0826009194360E-01
43  4.2000000000000E-01  1.1372749921118E+00 -6.4314670340984E-01
44  4.3000000000000E-01  1.1626169676845E+00 -6.7459400683475E-01
45  4.4000000000000E-01  1.1867554019346E+00 -7.0235123748711E-01
46  4.5000000000000E-01  1.2096441753807E+00 -7.2622428730893E-01
47  4.6000000000000E-01  1.2312393194833E+00 -7.4607710372191E-01
48  4.7000000000000E-01  1.2514990852982E+00 -7.6183186141576E-01
49  4.8000000000000E-01  1.2703840581649E+00 -7.7346791361675E-01
50  4.9000000000000E-01  1.2878573167952E+00 -7.8101955503696E-01
51  5.0000000000000E-01  1.3038846337956E+00 -7.8457265379236E-01
52  5.1000000000000E-01  1.3184347133855E+00 -7.8426023354276E-01
53  5.2000000000000E-01  1.3314794608943E+00 -7.8025710945361E-01
54  5.3000000000000E-01  1.3429942775517E+00 -7.7277370185421E-01
55  5.4000000000000E-01  1.3529583731657E+00 -7.6204916924173E-01
56  5.5000000000000E-01  1.3613550885138E+00 -7.4834401718924E-01
57  5.6000000000000E-01  1.3681722186887E+00 -7.3193235143720E-01
58  5.7000000000000E-01  1.3734023282468E+00 -7.1309395172926E-01
59  5.8000000000000E-01  1.3770430488161E+00 -6.9210634760661E-01
60  5.9000000000000E-01  1.3790973498398E+00 -6.6923707828205E-01
61  6.0000000000000E-01  1.3795737733637E+00 -6.4473631583830E-01
62  6.1000000000000E-01  1.3784866242122E+00 -6.1883002435897E-01
63  6.2000000000000E-01  1.3758561075427E+00 -5.9171381732145E-01
64  6.3000000000000E-01  1.3717084065989E+00 -5.6354766183143E-01
65  6.4000000000000E-01  1.3660756944988E+00 -5.3445156131403E-01
66  6.5000000000000E-01  1.3589960750568E+00 -5.0450232840847E-01
67  6.6000000000000E-01  1.3505134489510E+00 -4.7373153742103E-01
68  6.7000000000000E-01  1.3406773029601E+00 -4.4212472119736E-01
69  6.8000000000000E-01  1.3295424214998E+00 -4.0962185115903E-01
70  6.9000000000000E-01  1.3171685212438E+00 -3.7611911201250E-01
71  7.0000000000000E-01  1.3036198111965E+00 -3.4147195482229E-01
72  7.1000000000000E-01  1.2889644821583E+00 -3.0549938428971E-01
73  7.2000000000000E-01  1.2732741310584E+00 -2.6798940875504E-01
74  7.3000000000000E-01  1.2566231270940E+00 -2.2870555519300E-01
75  7.4000000000000E-01  1.2390879279744E+00 -1.8739432683526E-01
76  7.5000000000000E-01  1.2207463558020E+00 -1.4379345854086E-01
77  7.6000000000000E-01  1.2016768431930E+00 -9.7640805116034E-02
78  7.7000000000000E-01  1.1819576611346E+00 -4.8683680890249E-02
79  7.8000000000000E-01  1.1616661407620E+00  3.3115446428951E-03
80  7.9000000000000E-01  1.1408779017125E+00  5.8549800100227E-02
81  8.0000000000000E-01  1.1196660999451E+00  1.1719782521541E-01
82  8.1000000000000E-01  1.0981007079140E+00  1.7937505610560E-01
83  8.2000000000000E-01  1.0762478397287E+00  2.4514509282336E-01
84  8.3000000000000E-01  1.0541691334386E+00  3.1450795248591E-01
85  8.4000000000000E-01  1.0319212018410E+00  3.8739330038173E-01
86  8.5000000000000E-01  1.0095551622392E+00  4.6365483654812E-01