U     ONCVPSP-4.0.1  r_core=   1.25145   1.30497   1.45333   1.45333
92.0000     32.0000      230727    zatom,zion,pspd
8      11   3     4   600     0    pspcod,pspxc,lmax,lloc,mmax,r2well
5.99000000  4.00000000  0.00000000    rchrg fchrg qchrg
3     2     2     2     0    nproj
1     1           extension_switch
0                         3.3978382772825E+01  7.6464446801503E+00  1.3313351342924E+00
1  0.0000000000000E+00 -5.2130679772944E-08  1.0577978726278E-07 -1.8450518857183E-07
2  1.0000000000000E-02  1.3101126371321E-01 -4.1541207629527E-02  8.0397379272516E-02
3  2.0000000000000E-02  2.6115495792808E-01 -8.1956765670624E-02  1.5899759068225E-01
4  3.0000000000000E-02  3.8957828467944E-01 -1.2015004033422E-01  2.3405538470700E-01
5  4.0000000000000E-02  5.1545755349275E-01 -1.5508153286931E-01  3.0392774947028E-01
6  5.0000000000000E-02  6.3801166033496E-01 -1.8579523434621E-01  3.6712108189253E-01
7  6.0000000000000E-02  7.5651431596313E-01 -2.1144240451568E-01  4.2233375985829E-01
8  7.0000000000000E-02  8.7030467071054E-01 -2.3130204568037E-01  4.6849280818964E-01
9  8.0000000000000E-02  9.7879603488053E-01 -2.4479744829497E-01  5.0478353572144E-01
10  9.0000000000000E-02  1.0814824558694E+00 -2.5150831081731E-01  5.3067124044354E-01
11  1.0000000000000E-01  1.1779429829201E+00 -2.5117807818373E-01  5.4591432770252E-01
12  1.1000000000000E-01  1.2678435257647E+00 -2.4371629666809E-01  5.5056845512275E-01
13  1.2000000000000E-01  1.3509362919129E+00 -2.2919594293554E-01  5.4498159886714E-01
14  1.3000000000000E-01  1.4270568664384E+00 -2.0784584670706E-01  5.2978022033918E-01
15  1.4000000000000E-01  1.4961190752284E+00 -1.8003848444326E-01  5.0584699154341E-01
16  1.5000000000000E-01  1.5581078452728E+00 -1.4627357076153E-01  4.7429080232101E-01
17  1.6000000000000E-01  1.6130703412850E+00 -1.0715801009649E-01  4.3641001521730E-01
18  1.7000000000000E-01  1.6611057145866E+00 -6.3382888995852E-02  3.9365014616357E-01
19  1.8000000000000E-01  1.7023538458519E+00 -1.5698285547269E-02  3.4755732470623E-01
20  1.9000000000000E-01  1.7369834964343E+00  3.5113256424480E-02  2.9972902057569E-01
21  2.0000000000000E-01  1.7651803024284E+00  8.8263696975855E-02  2.5176360963183E-01
22  2.1000000000000E-01  1.7871350506273E+00  1.4298600719360E-01  2.0521038880039E-01
23  2.2000000000000E-01  1.8030326658482E+00  1.9855932226215E-01  1.6152163518609E-01
24  2.3000000000000E-01  1.8130423149401E+00  2.5433189271886E-01  1.2200823942555E-01
25  2.4000000000000E-01  1.8173089948258E+00  3.0974105802053E-01  8.7800329371017E-02
26  2.5000000000000E-01  1.8159469213165E+00  3.6432956418464E-01  5.9814140844653E-02
27  2.6000000000000E-01  1.8090349737251E+00  4.1775766770190E-01  3.8726192327043E-02
28  2.7000000000000E-01  1.7966143794338E+00  4.6981060735694E-01  2.4955586268610E-02
29  2.8000000000000E-01  1.7786887448002E+00  5.2040117964324E-01  1.8654998537330E-02
30  2.9000000000000E-01  1.7552264566116E+00  5.6956731718944E-01  1.9710637574023E-02
31  3.0000000000000E-01  1.7261653944066E+00  6.1746473775162E-01  2.7751164991385E-02
32  3.1000000000000E-01  1.6914198111161E+00  6.6435489842371E-01  4.2165278836124E-02
33  3.2000000000000E-01  1.6508891604039E+00  7.1058865029020E-01  6.2127378874785E-02
34  3.3000000000000E-01  1.6044685764616E+00  7.5658613749573E-01  8.6630469136067E-02
35  3.4000000000000E-01  1.5520606483105E+00  8.0281361666680E-01  1.1452521512684E-01
36  3.5000000000000E-01  1.4935880781024E+00  8.4975798333651E-01  1.4456386940723E-01
37  3.6000000000000E-01  1.4290067733610E+00  8.9789987767370E-01  1.7544761631560E-01
38  3.7000000000000E-01  1.3583188980290E+00  9.4768629940665E-01  2.0587576999038E-01
39  3.8000000000000E-01  1.2815853975914E+00  9.9950368921028E-01  2.3459519346581E-01
40  3.9000000000000E-01  1.1989375199361E+00  1.0536524298654E+00  2.6044829286226E-01
41  4.0000000000000E-01  1.1105868759849E+00  1.1103236850333E+00  2.8241798028569E-01
42  4.1000000000000E-01  1.0168336219207E+00  1.1695794274660E+00  2.9966809087136E-01
43  4.2000000000000E-01  9.1807239702151E-01  1.2313364137558E+00  3.1157788077627E-01
44  4.3000000000000E-01  8.1479571612127E-01  1.2953547422449E+00  3.1776941938190E-01
45  4.4000000000000E-01  7.0759459158674E-01  1.3612314881823E+00  3.1812691466393E-01
46  4.5000000000000E-01  5.9715624405915E-01  1.4283997501737E+00  3.1280726838488E-01
47  4.6000000000000E-01  4.8425885139459E-01  1.4961332695242E+00  3.0224143919107E-01
48  4.7000000000000E-01  3.6976337835953E-01  1.5635566048269E+00  2.8712648771026E-01
49  4.8000000000000E-01  2.5460262269074E-01  1.6296606639240E+00  2.6840847874552E-01
50  4.9000000000000E-01  1.3976770306802E-01  1.6933232201037E+00  2.4725671177435E-01
51  5.0000000000000E-01  2.6292298417772E-02  1.7533338748740E+00  2.2503003250433E-01
52  5.1000000000000E-01 -8.4764977020072E-02  1.8084227813496E+00  2.0323623595158E-01
53  5.2000000000000E-01 -1.9233961478967E-01  1.8572923151725E+00  1.8348579688094E-01
54  5.3000000000000E-01 -2.9538117129083E-01  1.8986507782309E+00  1.6744134908475E-01
55  5.4000000000000E-01 -3.9287361176380E-01  1.9312471477076E+00  1.5676447473728E-01
56  5.5000000000000E-01 -4.8385548772505E-01  1.9539058416637E+00  1.5306145437543E-01
57  5.6000000000000E-01 -5.6743939514483E-01  1.9655604639133E+00  1.5782966401414E-01
58  5.7000000000000E-01 -6.4283017667451E-01  1.9652855157053E+00  1.7240628742807E-01
59  5.8000000000000E-01 -7.0934136405509E-01  1.9523251189396E+00  1.9792093943953E-01
60  5.9000000000000E-01 -7.6640940543925E-01  1.9261178834400E+00  2.3525367272169E-01
61  6.0000000000000E-01 -8.1360528517958E-01  1.8863171662698E+00  2.8499967044369E-01
62  6.1000000000000E-01 -8.5064321863644E-01  1.8328061103657E+00  3.4744171593469E-01
63  6.2000000000000E-01 -8.7738618928637E-01  1.7657070082114E+00  4.2253128569794E-01
64  6.3000000000000E-01 -8.9384818708001E-01  1.6853847085533E+00  5.0987884197428E-01
65  6.4000000000000E-01 -9.0019310258893E-01  1.5924439644848E+00  6.0875361487938E-01
66  6.5000000000000E-01 -8.9673032783565E-01  1.4877208035229E+00  7.1809287169398E-01
67  6.6000000000000E-01 -8.8390720864576E-01  1.3722681784525E+00  8.3652038210446E-01
68  6.7000000000000E-01 -8.6229858179814E-01  1.2473363257317E+00  9.6237351284618E-01
69  6.8000000000000E-01 -8.3259371028373E-01  1.1143484105441E+00  1.0937381325133E+00
70  6.9000000000000E-01 -7.9558099900056E-01  9.7487216907079E-01  1.2284902856805E+00
71  7.0000000000000E-01 -7.5213092900203E-01  8.3058836496206E-01  1.3643434121232E+00
72  7.1000000000000E-01 -7.0317768920722E-01  6.8325695485833E-01  1.4988997476737E+00
73  7.2000000000000E-01 -6.4970000904867E-01  5.3468190476450E-01  1.6297044522754E+00
74  7.3000000000000E-01 -5.9270170321039E-01  3.8667561381633E-01  1.7543009704856E+00
75  7.4000000000000E-01 -5.3319243032182E-01  2.4102388434191E-01  1.8702861405688E+00
76  7.5000000000000E-01 -4.7216914175576E-01  9.9452328147321E-02  1.9753636289894E+00
77  7.6000000000000E-01 -4.1059865564518E-01 -3.6404979184968E-02  2.0673943742692E+00
78  7.7000000000000E-01 -3.4940173654561E-01 -1.6503388827219E-01  2.1444428727545E+00
79  7.8000000000000E-01 -2.8943899500505E-01 -2.8506502822718E-01  2.2048183220600E+00
80  7.9000000000000E-01 -2.3149884626103E-01 -3.9529468168545E-01  2.2471098476627E+00
81  8.0000000000000E-01 -1.7628768633911E-01 -4.9470139612981E-01  2.2702152648549E+00
82  8.1000000000000E-01 -1.2442236022699E-01 -5.8245820266825E-01  2.2733630616404E+00
83  8.2000000000000E-01 -7.6424913974397E-02 -6.5794046871790E-01  2.2561275171188E+00
84  8.3000000000000E-01 -3.2719544071650E-02 -7.2072955709113E-01  2.2184370829140E+00
85  8.4000000000000E-01  6.3684131641410E-03 -7.7061259380180E-01  2.1605763406867E+00
86  8.5000000000000E-01  4.0611668716429E-02 -8.0757875363023E-01  2.0831819951855E+00
87  8.6000000000000E-01  6.9878605543763E-02 -8.3181254947913E-01  1.9872334584831E+00
88  8.7000000000000E-01  9.4129628425206E-02 -8.4368465254350E-01  1.8740386163531E+00
89  8.8000000000000E-01  1.1341253230406E-01 -8.4374076944969E-01  1.7452153321488E+00
90  8.9000000000000E-01  1.2785716454933E-01 -8.3268905440216E-01  1.6026691277548E+00
91  9.0000000000000E-01  1.3766961255786E-01 -8.1138643410064E-01  1.4485672766298E+00
92  9.1000000000000E-01  1.4312607576630E-01 -7.8082406624893E-01  1.2853092427342E+00
93  9.2000000000000E-01  1.4456647838709E-01 -7.4211193480158E-01  1.1154929940075E+00
94  9.3000000000000E-01  1.4238774406281E-01 -6.9646230276869E-01  9.4187620302436E-01
95  9.4000000000000E-01  1.3703648431888E-01 -6.4517139277406E-01  7.6733071396672E-01
96  9.5000000000000E-01  1.2900064729417E-01 -5.8959824285790E-01  5.9478789730807E-01
97  9.6000000000000E-01  1.1879942976765E-01 -5.3113918630134E-01  4.2717162460288E-01
98  9.7000000000000E-01  1.0697047179352E-01 -4.7119582517852E-01  2.6731456781941E-01
99  9.8000000000000E-01  9.4053026898355E-02 -4.1113370314391E-01  1.1785235241359E-01
100  9.9000000000000E-01  8.0565427739690E-02 -3.5222812521109E-01 -1.8911246156630E-02
101  1.0000000000000E+00  6.6974797107525E-02 -2.9559284316979E-01 -1.4117602907348E-01
102  1.0100000000000E+00  5.3657425108560E-02 -2.4208865260147E-01 -2.4785735858855E-01
103  1.0200000000000E+00  4.0888927964702E-02 -1.9230686936770E-01 -3.3857592757022E-01
104  1.0300000000000E+00  2.8889975310782E-02 -1.4668572601939E-01 -4.1330050095037E-01
105  1.0400000000000E+00  1.7838977170481E-02 -1.0554348271420E-01 -4.7225157143080E-01
106  1.0500000000000E+00  7.8735074952563E-03 -6.9083787107429E-02 -5.1588709585434E-01
107  1.0600000000000E+00 -9.0750113795330E-04 -3.7402912133877E-02 -5.4488425334520E-01
108  1.0700000000000E+00 -8.4409904020536E-03 -1.0498461026556E-02 -5.6011789530998E-01
109  1.0800000000000E+00 -1.4696639414982E-02  1.1720889781548E-02 -5.6263644164356E-01
110  1.0900000000000E+00 -1.9673553579224E-02  2.9425032076047E-02 -5.5363599295968E-01
111  1.1000000000000E+00 -2.3396956375448E-02  4.2851844146382E-02 -5.3443339865890E-01
112  1.1100000000000E+00 -2.5915038763705E-02  5.2296739888489E-02 -5.0643897862754E-01
113  1.1200000000000E+00 -2.7296088877291E-02  5.8102643679557E-02 -4.7112951158361E-01
114  1.1300000000000E+00 -2.7626004798229E-02  6.0650654861302E-02 -4.3002208737675E-01
115  1.1400000000000E+00 -2.7006238880777E-02  6.0351555506453E-02 -3.8464921826299E-01
116  1.1500000000000E+00 -2.5552215330708E-02  5.7638312548084E-02 -3.3653565357067E-01
117  1.1600000000000E+00 -2.3392210458834E-02  5.2959617131665E-02 -2.8717713709958E-01
118  1.1700000000000E+00 -2.0666642837364E-02  4.6774429641019E-02 -2.3802126858755E-01
119  1.1800000000000E+00 -1.7527927828081E-02  3.9547861182116E-02 -1.9045101575727E-01
120  1.1900000000000E+00 -1.4142984636075E-02  3.1752125195705E-02 -1.4577538595057E-01
121  1.2000000000000E+00 -1.0771052753529E-02  2.4002128656082E-02 -1.0537748390882E-01
122  1.2100000000000E+00 -7.5962432922779E-03  1.6755794516560E-02 -7.0357977338988E-02
123  1.2200000000000E+00 -4.7476589491103E-03  1.0345968329117E-02 -4.1567926700254E-02
124  1.2300000000000E+00 -2.3943355264080E-03  5.1475972292028E-03 -1.9800046203313E-02
125  1.2400000000000E+00 -7.3343386722531E-04  1.5544357635212E-03 -5.7299964477054E-03
126  1.2500000000000E+00 -2.5873503668560E-05  5.3971102380848E-05 -1.9026639266468E-04
127  1.2600000000000E+00 -2.5773528044134E-06  5.3922195669619E-06 -1.9132617459981E-05
128  1.2700000000000E+00  8.5404105560941E-07 -1.7984761102148E-06  6.5066266988366E-06
129  1.28 -0.  0. -0.
130  1.29  0.  0.  0.
131  1.30  0.  0.  0.
132  1.31  0.  0.  0.
133  1.32  0.  0.  0.
134  1.33  0.  0.  0.
135  1.34  0.  0.  0.
136  1.35  0.  0.  0.
137  1.36  0.  0.  0.
138  1.37  0.  0.  0.
139  1.38  0.  0.  0.
140  1.39  0.  0.  0.
141  1.40  0.  0.  0.
142  1.41  0.  0.  0.
143  1.42  0.  0.  0.
144  1.43  0.  0.  0.
145  1.44  0.  0.  0.
146  1.45  0.  0.  0.
147  1.46  0.  0.  0.
148  1.47  0.  0.  0.
149  1.48  0.  0.  0.
150  1.49  0.  0.  0.
151  1.50  0.  0.  0.
152  1.51  0.  0.  0.
153  1.52  0.  0.  0.
154  1.53  0.  0.  0.
155  1.54  0.  0.  0.
156  1.55  0.  0.  0.
157  1.56  0.  0.  0.
158  1.57  0.  0.  0.
159  1.58  0.  0.  0.
160  1.59  0.  0.  0.
161  1.60  0.  0.  0.
162  1.61  0.  0.  0.
163  1.62  0.  0.  0.
164  1.63  0.  0.  0.
165  1.64  0.  0.  0.
166  1.65  0.  0.  0.
167  1.66  0.  0.  0.
168  1.67  0.  0.  0.
169  1.68  0.  0.  0.
170  1.69  0.  0.  0.
171  1.70  0.  0.  0.
172  1.71  0.  0.  0.
173  1.72  0.  0.  0.
174  1.73  0.  0.  0.
175  1.74  0.  0.  0.
176  1.75  0.  0.  0.
177  1.76  0.  0.  0.
178  1.77  0.  0.  0.
179  1.78  0.  0.  0.
180  1.79  0.  0.  0.
181  1.80  0.  0.  0.
182  1.81  0.  0.  0.
183  1.82  0.  0.  0.
184  1.83  0.  0.  0.
185  1.84  0.  0.  0.
186  1.85  0.  0.  0.
187  1.86  0.  0.  0.
188  1.87  0.  0.  0.
189  1.88  0.  0.  0.
190  1.89  0.  0.  0.
191  1.90  0.  0.  0.
192  1.91  0.  0.  0.
193  1.92  0.  0.  0.
194  1.93  0.  0.  0.
195  1.94  0.  0.  0.
196  1.95  0.  0.  0.
197  1.96  0.  0.  0.
198  1.97  0.  0.  0.
199  1.98  0.  0.  0.
200  1.99  0.  0.  0.
201  2.00  0.  0.  0.
202  2.01  0.  0.  0.
203  2.02  0.  0.  0.
204  2.03  0.  0.  0.
205  2.04  0.  0.  0.
206  2.05  0.  0.  0.
207  2.06  0.  0.  0.
208  2.07  0.  0.  0.
209  2.08  0.  0.  0.
210  2.09  0.  0.  0.
211  2.10  0.  0.  0.
212  2.11  0.  0.  0.
213  2.12  0.  0.  0.
214  2.13  0.  0.  0.
215  2.14  0.  0.  0.
216  2.15  0.  0.  0.
217  2.16  0.  0.  0.
218  2.17  0.  0.  0.
219  2.18  0.  0.  0.
220  2.19  0.  0.  0.
221  2.20  0.  0.  0.
222  2.21  0.  0.  0.
223  2.22  0.  0.  0.
224  2.23  0.  0.  0.
225  2.24  0.  0.  0.
226  2.25  0.  0.  0.
227  2.26  0.  0.  0.
228  2.27  0.  0.  0.
229  2.28  0.  0.  0.
230  2.29  0.  0.  0.
231  2.30  0.  0.  0.
232  2.31  0.  0.  0.
233  2.32  0.  0.  0.
234  2.33  0.  0.  0.
235  2.34  0.  0.  0.
236  2.35  0.  0.  0.
237  2.36  0.  0.  0.
238  2.37  0.  0.  0.
239  2.38  0.  0.  0.
240  2.39  0.  0.  0.
241  2.40  0.  0.  0.
242  2.41  0.  0.  0.
243  2.42  0.  0.  0.
244  2.43  0.  0.  0.
245  2.44  0.  0.  0.
246  2.45  0.  0.  0.
247  2.46  0.  0.  0.
248  2.47  0.  0.  0.
249  2.48  0.  0.  0.
250  2.49  0.  0.  0.
251  2.50  0.  0.  0.
252  2.51  0.  0.  0.
253  2.52  0.  0.  0.
254  2.53  0.  0.  0.
255  2.54  0.  0.  0.
256  2.55  0.  0.  0.
257  2.56  0.  0.  0.
258  2.57  0.  0.  0.
259  2.58  0.  0.  0.
260  2.59  0.  0.  0.
261  2.60  0.  0.  0.
262  2.61  0.  0.  0.
263  2.62  0.  0.  0.
264  2.63  0.  0.  0.
265  2.64  0.  0.  0.
266  2.65  0.  0.  0.
267  2.66  0.  0.  0.
268  2.67  0.  0.  0.
269  2.68  0.  0.  0.
270  2.69  0.  0.  0.
271  2.70  0.  0.  0.
272  2.71  0.  0.  0.
273  2.72  0.  0.  0.
274  2.73  0.  0.  0.
275  2.74  0.  0.  0.
276  2.75  0.  0.  0.
277  2.76  0.  0.  0.
278  2.77  0.  0.  0.
279  2.78  0.  0.  0.
280  2.79  0.  0.  0.
281  2.80  0.  0.  0.
282  2.81  0.  0.  0.
283  2.82  0.  0.  0.
284  2.83  0.  0.  0.
285  2.84  0.  0.  0.
286  2.85  0.  0.  0.
287  2.86  0.  0.  0.
288  2.87  0.  0.  0.
289  2.88  0.  0.  0.
290  2.89  0.  0.  0.
291  2.90  0.  0.  0.
292  2.91  0.  0.  0.
293  2.92  0.  0.  0.
294  2.93  0.  0.  0.
295  2.94  0.  0.  0.
296  2.95  0.  0.  0.
297  2.96  0.  0.  0.
298  2.97  0.  0.  0.
299  2.98  0.  0.  0.
300  2.99  0.  0.  0.
301  3.00  0.  0.  0.
302  3.01  0.  0.  0.
303  3.02  0.  0.  0.
304  3.03  0.  0.  0.
305  3.04  0.  0.  0.
306  3.05  0.  0.  0.
307  3.06  0.  0.  0.
308  3.07  0.  0.  0.
309  3.08  0.  0.  0.
310  3.09  0.  0.  0.
311  3.10  0.  0.  0.
312  3.11  0.  0.  0.
313  3.12  0.  0.  0.
314  3.13  0.  0.  0.
315  3.14  0.  0.  0.
316  3.15  0.  0.  0.
317  3.16  0.  0.  0.
318  3.17  0.  0.  0.
319  3.18  0.  0.  0.
320  3.19  0.  0.  0.
321  3.20  0.  0.  0.
322  3.21  0.  0.  0.
323  3.22  0.  0.  0.
324  3.23  0.  0.  0.
325  3.24  0.  0.  0.
326  3.25  0.  0.  0.
327  3.26  0.  0.  0.
328  3.27  0.  0.  0.
329  3.28  0.  0.  0.
330  3.29  0.  0.  0.
331  3.30  0.  0.  0.
332  3.31  0.  0.  0.
333  3.32  0.  0.  0.
334  3.33  0.  0.  0.
335  3.34  0.  0.  0.
336  3.35  0.  0.  0.
337  3.36  0.  0.  0.
338  3.37  0.  0.  0.
339  3.38  0.  0.  0.
340  3.39  0.  0.  0.
341  3.40  0.  0.  0.
342  3.41  0.  0.  0.
343  3.42  0.  0.  0.
344  3.43  0.  0.  0.
345  3.44  0.  0.  0.
346  3.45  0.  0.  0.
347  3.46  0.  0.  0.
348  3.47  0.  0.  0.
349  3.48  0.  0.  0.
350  3.49  0.  0.  0.
351  3.50  0.  0.  0.
352  3.51  0.  0.  0.
353  3.52  0.  0.  0.
354  3.53  0.  0.  0.
355  3.54  0.  0.  0.
356  3.55  0.  0.  0.
357  3.56  0.  0.  0.
358  3.57  0.  0.  0.
359  3.58  0.  0.  0.
360  3.59  0.  0.  0.
361  3.60  0.  0.  0.
362  3.61  0.  0.  0.
363  3.62  0.  0.  0.
364  3.63  0.  0.  0.
365  3.64  0.  0.  0.
366  3.65  0.  0.  0.
367  3.66  0.  0.  0.
368  3.67  0.  0.  0.
369  3.68  0.  0.  0.
370  3.69  0.  0.  0.
371  3.70  0.  0.  0.
372  3.71  0.  0.  0.
373  3.72  0.  0.  0.
374  3.73  0.  0.  0.
375  3.74  0.  0.  0.
376  3.75  0.  0.  0.
377  3.76  0.  0.  0.
378  3.77  0.  0.  0.
379  3.78  0.  0.  0.
380  3.79  0.  0.  0.
381  3.80  0.  0.  0.
382  3.81  0.  0.  0.
383  3.82  0.  0.  0.
384  3.83  0.  0.  0.
385  3.84  0.  0.  0.
386  3.85  0.  0.  0.
387  3.86  0.  0.  0.
388  3.87  0.  0.  0.
389  3.88  0.  0.  0.
390  3.89  0.  0.  0.
391  3.90  0.  0.  0.
392  3.91  0.  0.  0.
393  3.92  0.  0.  0.
394  3.93  0.  0.  0.
395  3.94  0.  0.  0.
396  3.95  0.  0.  0.
397  3.96  0.  0.  0.
398  3.97  0.  0.  0.
399  3.98  0.  0.  0.
400  3.99  0.  0.  0.
401  4.00  0.  0.  0.
402  4.01  0.  0.  0.
403  4.02  0.  0.  0.
404  4.03  0.  0.  0.
405  4.04  0.  0.  0.
406  4.05  0.  0.  0.
407  4.06  0.  0.  0.
408  4.07  0.  0.  0.
409  4.08  0.  0.  0.
410  4.09  0.  0.  0.
411  4.10  0.  0.  0.
412  4.11  0.  0.  0.
413  4.12  0.  0.  0.
414  4.13  0.  0.  0.
415  4.14  0.  0.  0.
416  4.15  0.  0.  0.
417  4.16  0.  0.  0.
418  4.17  0.  0.  0.
419  4.18  0.  0.  0.
420  4.19  0.  0.  0.
421  4.20  0.  0.  0.
422  4.21  0.  0.  0.
423  4.22  0.  0.  0.
424  4.23  0.  0.  0.
425  4.24  0.  0.  0.
426  4.25  0.  0.  0.
427  4.26  0.  0.  0.
428  4.27  0.  0.  0.
429  4.28  0.  0.  0.
430  4.29  0.  0.  0.
431  4.30  0.  0.  0.
432  4.31  0.  0.  0.
433  4.32  0.  0.  0.
434  4.33  0.  0.  0.
435  4.34  0.  0.  0.
436  4.35  0.  0.  0.
437  4.36  0.  0.  0.
438  4.37  0.  0.  0.
439  4.38  0.  0.  0.
440  4.39  0.  0.  0.
441  4.40  0.  0.  0.
442  4.41  0.  0.  0.
443  4.42  0.  0.  0.
444  4.43  0.  0.  0.
445  4.44  0.  0.  0.
446  4.45  0.  0.  0.
447  4.46  0.  0.  0.
448  4.47  0.  0.  0.
449  4.48  0.  0.  0.
450  4.49  0.  0.  0.
451  4.50  0.  0.  0.
452  4.51  0.  0.  0.
453  4.52  0.  0.  0.
454  4.53  0.  0.  0.
455  4.54  0.  0.  0.
456  4.55  0.  0.  0.
457  4.56  0.  0.  0.
458  4.57  0.  0.  0.
459  4.58  0.  0.  0.
460  4.59  0.  0.  0.
461  4.60  0.  0.  0.
462  4.61  0.  0.  0.
463  4.62  0.  0.  0.
464  4.63  0.  0.  0.
465  4.64  0.  0.  0.
466  4.65  0.  0.  0.
467  4.66  0.  0.  0.
468  4.67  0.  0.  0.
469  4.68  0.  0.  0.
470  4.69  0.  0.  0.
471  4.70  0.  0.  0.
472  4.71  0.  0.  0.
473  4.72  0.  0.  0.
474  4.73  0.  0.  0.
475  4.74  0.  0.  0.
476  4.75  0.  0.  0.
477  4.76  0.  0.  0.
478  4.77  0.  0.  0.
479  4.78  0.  0.  0.
480  4.79  0.  0.  0.
481  4.80  0.  0.  0.
482  4.81  0.  0.  0.
483  4.82  0.  0.  0.
484  4.83  0.  0.  0.
485  4.84  0.  0.  0.
486  4.85  0.  0.  0.
487  4.86  0.  0.  0.
488  4.87  0.  0.  0.
489  4.88  0.  0.  0.
490  4.89  0.  0.  0.
491  4.90  0.  0.  0.
492  4.91  0.  0.  0.
493  4.92  0.  0.  0.
494  4.93  0.  0.  0.
495  4.94  0.  0.  0.
496  4.95  0.  0.  0.
497  4.96  0.  0.  0.
498  4.97  0.  0.  0.
499  4.98  0.  0.  0.
500  4.99  0.  0.  0.
501  5.00  0.  0.  0.
502  5.01  0.  0.  0.
503  5.02  0.  0.  0.
504  5.03  0.  0.  0.
505  5.04  0.  0.  0.
506  5.05  0.  0.  0.
507  5.06  0.  0.  0.
508  5.07  0.  0.  0.
509  5.08  0.  0.  0.
510  5.09  0.  0.  0.
511  5.10  0.  0.  0.
512  5.11  0.  0.  0.
513  5.12  0.  0.  0.
514  5.13  0.  0.  0.
515  5.14  0.  0.  0.
516  5.15  0.  0.  0.
517  5.16  0.  0.  0.
518  5.17  0.  0.  0.
519  5.18  0.  0.  0.
520  5.19  0.  0.  0.
521  5.20  0.  0.  0.
522  5.21  0.  0.  0.
523  5.22  0.  0.  0.
524  5.23  0.  0.  0.
525  5.24  0.  0.  0.
526  5.25  0.  0.  0.
527  5.26  0.  0.  0.
528  5.27  0.  0.  0.
529  5.28  0.  0.  0.
530  5.29  0.  0.  0.
531  5.30  0.  0.  0.
532  5.31  0.  0.  0.
533  5.32  0.  0.  0.
534  5.33  0.  0.  0.
535  5.34  0.  0.  0.
536  5.35  0.  0.  0.
537  5.36  0.  0.  0.
538  5.37  0.  0.  0.
539  5.38  0.  0.  0.
540  5.39  0.  0.  0.
541  5.40  0.  0.  0.
542  5.41  0.  0.  0.
543  5.42  0.  0.  0.
544  5.43  0.  0.  0.
545  5.44  0.  0.  0.
546  5.45  0.  0.  0.
547  5.46  0.  0.  0.
548  5.47  0.  0.  0.
549  5.48  0.  0.  0.
550  5.49  0.  0.  0.
551  5.50  0.  0.  0.
552  5.51  0.  0.  0.
553  5.52  0.  0.  0.
554  5.53  0.  0.  0.
555  5.54  0.  0.  0.
556  5.55  0.  0.  0.
557  5.56  0.  0.  0.
558  5.57  0.  0.  0.
559  5.58  0.  0.  0.
560  5.59  0.  0.  0.
561  5.60  0.  0.  0.
562  5.61  0.  0.  0.
563  5.62  0.  0.  0.
564  5.63  0.  0.  0.
565  5.64  0.  0.  0.
566  5.65  0.  0.  0.
567  5.66  0.  0.  0.
568  5.67  0.  0.  0.
569  5.68  0.  0.  0.
570  5.69  0.  0.  0.
571  5.70  0.  0.  0.
572  5.71  0.  0.  0.
573  5.72  0.  0.  0.
574  5.73  0.  0.  0.
575  5.74  0.  0.  0.
576  5.75  0.  0.  0.
577  5.76  0.  0.  0.
578  5.77  0.  0.  0.
579  5.78  0.  0.  0.
580  5.79  0.  0.  0.
581  5.80  0.  0.  0.
582  5.81  0.  0.  0.
583  5.82  0.  0.  0.
584  5.83  0.  0.  0.
585  5.84  0.  0.  0.
586  5.85  0.  0.  0.
587  5.86  0.  0.  0.
588  5.87  0.  0.  0.
589  5.88  0.  0.  0.
590  5.89  0.  0.  0.
591  5.90  0.  0.  0.
592  5.91  0.  0.  0.
593  5.92  0.  0.  0.
594  5.93  0.  0.  0.
595  5.94  0.  0.  0.
596  5.95  0.  0.  0.
597  5.96  0.  0.  0.
598  5.97  0.  0.  0.
599  5.98  0.  0.  0.
600  5.99  0.  0.  0.
1                         1.3171759578719E+01  2.1546744995487E+00
1  0.0000000000000E+00 -2.3202191556937E-09  9.9745311454846E-09
2  1.0000000000000E-02  3.1305880197496E-03 -7.9539778777720E-04
3  2.0000000000000E-02  1.2503094566642E-02 -3.1767510763581E-03
4  3.0000000000000E-02  2.8059805886153E-02 -7.1293942513813E-03
5  4.0000000000000E-02  4.9704730017918E-02 -1.2628406474597E-02
6  5.0000000000000E-02  7.7303899083261E-02 -1.9637916969225E-02
7  6.0000000000000E-02  1.1068580392695E-01 -2.8110176741397E-02
8  7.0000000000000E-02  1.4964197198886E-01 -3.7984439463307E-02
9  8.0000000000000E-02  1.9392770160145E-01 -4.9185704218271E-02
10  9.0000000000000E-02  2.4326296766911E-01 -6.1623381189286E-02
11  1.0000000000000E-01  2.9733351479400E-01 -7.5189947895247E-02
12  1.1000000000000E-01  3.5579215429733E-01 -8.9759668026530E-02
13  1.2000000000000E-01  4.1826028119222E-01 -1.0518744714376E-01
14  1.3000000000000E-01  4.8432962596540E-01 -1.2130789938062E-01
15  1.4000000000000E-01  5.5356425401320E-01 -1.3793469679669E-01
16  1.5000000000000E-01  6.2550282277143E-01 -1.5486026818958E-01
17  1.6000000000000E-01  6.9966110302091E-01 -1.7185590709098E-01
18  1.7000000000000E-01  7.7553476660729E-01 -1.8867233949744E-01
19  1.8000000000000E-01  8.5260243797261E-01 -2.0504079084307E-01
20  1.9000000000000E-01  9.3032900156732E-01 -2.2067457908086E-01
21  2.0000000000000E-01  1.0081691515200E+00 -2.3527124682772E-01
22  2.1000000000000E-01  1.0855711640316E+00 -2.4851523070780E-01
23  2.2000000000000E-01  1.1619808669812E+00 -2.6008105069816E-01
24  2.3000000000000E-01  1.2368457753483E+00 -2.6963698685765E-01
25  2.4000000000000E-01  1.3096193554279E+00 -2.7684919573505E-01
26  2.5000000000000E-01  1.3797653756092E+00 -2.8138620443479E-01
27  2.6000000000000E-01  1.4467622968658E+00 -2.8292370718668E-01
28  2.7000000000000E-01  1.5101076522024E+00 -2.8114957771338E-01
29  2.8000000000000E-01  1.5693223612721E+00 -2.7576900107570E-01
30  2.9000000000000E-01  1.6239549243171E+00 -2.6650962131521E-01
31  3.0000000000000E-01  1.6735854386070E+00 -2.5312659636504E-01
32  3.1000000000000E-01  1.7178293807057E+00 -2.3540744955961E-01
33  3.2000000000000E-01  1.7563410992505E+00 -2.1317660776686E-01
34  3.3000000000000E-01  1.7888169654728E+00 -1.8629951974466E-01
35  3.4000000000000E-01  1.8149981324288E+00 -1.5468625475774E-01
36  3.5000000000000E-01  1.8346728587738E+00 -1.1829449067586E-01
37  3.6000000000000E-01  1.8476783588502E+00 -7.7131812523929E-02
38  3.7000000000000E-01  1.8539021477402E+00 -3.1257256509584E-02
39  3.8000000000000E-01  1.8532828576361E+00  1.9217949414461E-02
40  3.9000000000000E-01  1.8458105102483E+00  7.4130479779309E-02
41  4.0000000000000E-01  1.8315262388155E+00  1.3326585318491E-01
42  4.1000000000000E-01  1.8105214624185E+00  1.9636021438623E-01
43  4.2000000000000E-01  1.7829365245177E+00  2.6310293045641E-01
44  4.3000000000000E-01  1.7489588167238E+00  3.3313995541163E-01
45  4.4000000000000E-01  1.7088204175585E+00  4.0607789939331E-01
46  4.5000000000000E-01  1.6627952841609E+00  4.8148872162782E-01
47  4.6000000000000E-01  1.6111960423487E+00  5.5891495140125E-01
48  4.7000000000000E-01  1.5543704269667E+00  6.3787532863366E-01
49  4.8000000000000E-01  1.4926974298982E+00  7.1787074569194E-01
50  4.9000000000000E-01  1.4265832173330E+00  7.9839036515195E-01
51  5.0000000000000E-01  1.3564568807849E+00  8.7891778453864E-01
52  5.1000000000000E-01  1.2827660878542E+00  9.5893711877949E-01
53  5.2000000000000E-01  1.2059726988071E+00  1.0379388742502E+00
54  5.3000000000000E-01  1.1265484136886E+00  1.1154254948265E+00
55  5.4000000000000E-01  1.0449705119441E+00  1.1909164701361E+00
56  5.5000000000000E-01  9.6171774246433E-01  1.2639529089993E+00
57  5.6000000000000E-01  8.7726641670003E-01  1.3341014965237E+00
58  5.7000000000000E-01  7.9208675115600E-01  1.4009577710796E+00
59  5.8000000000000E-01  7.0663949833331E-01  1.4641486769562E+00
60  5.9000000000000E-01  6.2137289723533E-01  1.5233343693507E+00
61  6.0000000000000E-01  5.3671996609271E-01  1.5782092699052E+00
62  6.1000000000000E-01  4.5309615121459E-01  1.6285023926939E+00
63  6.2000000000000E-01  3.7089733706137E-01  1.6739769817519E+00
64  6.3000000000000E-01  2.9049821398282E-01  1.7144295213609E+00
65  6.4000000000000E-01  2.1225099179061E-01  1.7496881987673E+00
66  6.5000000000000E-01  1.3648443964109E-01  1.7796109153036E+00
67  6.6000000000000E-01  6.3503225778908E-02  1.8040829555277E+00
68  6.7000000000000E-01 -6.4124753010468E-03  1.8230144345891E+00
69  6.8000000000000E-01 -7.3007145639615E-02  1.8363376512535E+00
70  6.9000000000000E-01 -1.3604989765813E-01  1.8440044776295E+00
71  7.0000000000000E-01 -1.9533430266203E-01  1.8459839164936E+00
72  7.1000000000000E-01 -2.5067811878872E-01  1.8422599531477E+00
73  7.2000000000000E-01 -3.0192296305224E-01  1.8328298210017E+00
74  7.3000000000000E-01 -3.4893397069766E-01  1.8177027886614E+00
75  7.4000000000000E-01 -3.9159948237137E-01  1.7968995614171E+00
76  7.5000000000000E-01 -4.2983079570000E-01  1.7704523719181E+00
77  7.6000000000000E-01 -4.6356201282762E-01  1.7384058137862E+00
78  7.7000000000000E-01 -4.9275000938016E-01  1.7008184483066E+00
79  7.8000000000000E-01 -5.1737454330026E-01  1.6577651884805E+00
80  7.9000000000000E-01 -5.3743851412391E-01  1.6093404369882E+00
81  8.0000000000000E-01 -5.5296837463935E-01  1.5556619253180E+00
82  8.1000000000000E-01 -5.6401468755694E-01  1.4968751707608E+00
83  8.2000000000000E-01 -5.7065280988557E-01  1.4331584363841E+00
84  8.3000000000000E-01 -5.7298367719233E-01  1.3647280466590E+00
85  8.4000000000000E-01 -5.7113464882862E-01  1.2918438782015E+00
86  8.5000000000000E-01 -5.6526036351508E-01  1.2148148110963E+00
87  8.6000000000000E-01 -5.5554354233657E-01  1.1340038913960E+00
88  8.7000000000000E-01 -5.4219566311792E-01  1.0498329194160E+00
89  8.8000000000000E-01 -5.2545741620664E-01  9.6278614105114E-01
90  8.9000000000000E-01 -5.0559883672078E-01  8.7341268009799E-01
91  9.0000000000000E-01 -4.8291899213380E-01  7.8232730793707E-01
92  9.1000000000000E-01 -4.5774508643564E-01  6.9020910226793E-01
93  9.2000000000000E-01 -4.3043082277244E-01  5.9779749816951E-01
94  9.3000000000000E-01 -4.0135384513374E-01  5.0588518173274E-01
95  9.4000000000000E-01 -3.7091205601363E-01  4.1530721798335E-01
96  9.5000000000000E-01 -3.3951858067795E-01  3.2692573978354E-01
97  9.6000000000000E-01 -3.0759511935847E-01  2.4160945181141E-01
98  9.7000000000000E-01 -2.7556339598437E-01  1.6020712245136E-01
99  9.8000000000000E-01 -2.4383437555556E-01  8.3514145331457E-02
100  9.9000000000000E-01 -2.1279488101686E-01  1.2231148058513E-02
101  1.0000000000000E+00 -1.8279122250537E-01 -5.3086380609831E-02
102  1.0100000000000E+00 -1.5410990038667E-01 -1.1208664353904E-01
103  1.0200000000000E+00 -1.2697641763441E-01 -1.6460658420698E-01
104  1.0300000000000E+00 -1.0158147362884E-01 -2.1055659620759E-01
105  1.0400000000000E+00 -7.8086016072530E-02 -2.4989699306475E-01
106  1.0500000000000E+00 -5.6619699496503E-02 -2.8264205584096E-01
107  1.0600000000000E+00 -3.7279720107319E-02 -3.0886334982410E-01
108  1.0700000000000E+00 -2.0130077409810E-02 -3.2869215360256E-01
109  1.0800000000000E+00 -5.2013014503691E-03 -3.4232088229545E-01
110  1.0900000000000E+00  7.5093248615508E-03 -3.5000341061592E-01
111  1.1000000000000E+00  1.8037027814469E-02 -3.5205422247480E-01
112  1.1100000000000E+00  2.6448279458670E-02 -3.4884634062839E-01
113  1.1200000000000E+00  3.2839008338913E-02 -3.4080801256444E-01
114  1.1300000000000E+00  3.7332300194926E-02 -3.2841817408162E-01
115  1.1400000000000E+00  4.0075607774665E-02 -3.1220071341897E-01
116  1.1500000000000E+00  4.1237510900218E-02 -2.9271762471245E-01
117  1.1600000000000E+00  4.1004070916773E-02 -2.7056114068067E-01
118  1.1700000000000E+00  3.9574838839705E-02 -2.4634497827354E-01
119  1.1800000000000E+00  3.7158584603942E-02 -2.2069485151993E-01
120  1.1900000000000E+00  3.3968823563616E-02 -1.9423842973934E-01