U     ONCVPSP-4.0.1  r_core=   1.25145   1.30497   1.45333   1.45333
92.0000     32.0000      230727    zatom,zion,pspd
8      11   3     4   600     0    pspcod,pspxc,lmax,lloc,mmax,r2well
5.99000000  4.00000000  0.00000000    rchrg fchrg qchrg
3     3     3     3    nproj
3     1           extension_switch
4     4     4    nprojso
0                         3.4040988322991E+01  7.6392466148687E+00  1.3284249594205E+00
1  0.0000000000000E+00 -5.2779204451348E-08  1.0743723377615E-07 -1.8730096862374E-07
2  1.0000000000000E-02  1.3071565230916E-01 -4.1995376428166E-02  8.0703460918803E-02
3  2.0000000000000E-02  2.6056515326762E-01 -8.2856941676839E-02  1.5959404197841E-01
4  3.0000000000000E-02  3.8869721158456E-01 -1.2148022903829E-01  2.3491138214415E-01
5  4.0000000000000E-02  5.1428981590027E-01 -1.5681855156615E-01  3.0499853720858E-01
6  5.0000000000000E-02  6.3656378860214E-01 -1.8790964811928E-01  3.6834968683030E-01
7  6.0000000000000E-02  7.5479507590376E-01 -2.1389971741194E-01  4.2365318025475E-01
8  7.0000000000000E-02  8.6832541764813E-01 -2.3406410102453E-01  4.6982859616987E-01
9  8.0000000000000E-02  9.7657109307593E-01 -2.4782398376624E-01  5.0605667945036E-01
10  9.0000000000000E-02  1.0790295015178E+00 -2.5475860755171E-01  5.3180124052994E-01
11  1.0000000000000E-01  1.1752834076068E+00 -2.5461263900205E-01  5.4682235488022E-01
12  1.1000000000000E-01  1.2650027568813E+00 -2.4729848673036E-01  5.5118047273847E-01
13  1.2000000000000E-01  1.3479440470917E+00 -2.3289352676108E-01  5.4523133431451E-01
14  1.3000000000000E-01  1.4239473205563E+00 -2.1163235857080E-01  5.2961187431527E-01
15  1.4000000000000E-01  1.4929309209193E+00 -1.8389437457196E-01  5.0521758272169E-01
16  1.5000000000000E-01  1.5548842310973E+00 -1.5018707733302E-01  4.7317205744649E-01
17  1.6000000000000E-01  1.6098586756331E+00 -1.1112571653918E-01  4.3478973032260E-01
18  1.7000000000000E-01  1.6579573278978E+00 -6.7409937175224E-02  3.9153296304778E-01
19  1.8000000000000E-01  1.6993235086767E+00 -1.9798227728809E-02  3.4496488738160E-01
20  1.9000000000000E-01  1.7341287960580E+00  3.0918970852918E-02  2.9669949836462E-01
21  2.0000000000000E-01  1.7625608860461E+00  8.3946590610899E-02  2.4835059623164E-01
22  2.1000000000000E-01  1.7848117482122E+00  1.3851177685487E-01  2.0148120912720E-01
23  2.2000000000000E-01  1.8010665107041E+00  1.9388933898658E-01  1.5755511338613E-01
24  2.3000000000000E-01  1.8114934842901E+00  2.4942495252922E-01  1.1789200132060E-01
25  2.4000000000000E-01  1.8162356965069E+00  3.0455532636436E-01  8.3627730095755E-02
26  2.5000000000000E-01  1.8154042555637E+00  3.5882464869375E-01  5.5680922874887E-02
27  2.6000000000000E-01  1.8090738010363E+00  4.1189674784827E-01  3.4726989986835E-02
28  2.7000000000000E-01  1.7972802265038E+00  4.6356254593977E-01  2.1180399695724E-02
29  2.8000000000000E-01  1.7800207804549E+00  5.1374253997944E-01  1.5185762724255E-02
30  2.9000000000000E-01  1.7572565685391E+00  5.6248421147365E-01  1.6618010345297E-02
31  3.0000000000000E-01  1.7289173952841E+00  6.0995443628891E-01  2.5091651631760E-02
32  3.1000000000000E-01  1.6949087995386E+00  6.5642713619070E-01  3.9978800748656E-02
33  3.2000000000000E-01  1.6551210579119E+00  7.0226657636217E-01  6.0435379415757E-02
34  3.3000000000000E-01  1.6094398570738E+00  7.4790686399425E-01  8.5434632120108E-02
35  3.4000000000000E-01  1.5577582714482E+00  7.9382833667767E-01  1.1380685099956E-01
36  3.5000000000000E-01  1.4999896298196E+00  8.4053164129521E-01  1.4428400143880E-01
37  3.6000000000000E-01  1.4360808145693E+00  8.8851039054998E-01  1.7554777513819E-01
38  3.7000000000000E-01  1.3660255121388E+00  9.3822334212475E-01  2.0627948023234E-01
39  3.8000000000000E-01  1.2898769238897E+00  9.9006707261149E-01  2.3521011195676E-01
40  3.9000000000000E-01  1.2077594533048E+00  1.0443501136147E+00  2.6116893478655E-01
41  4.0000000000000E-01  1.1198789084187E+00  1.1012694807209E+00  2.8312894852368E-01
42  4.1000000000000E-01  1.0265307969326E+00  1.1608904582674E+00  3.0024770540065E-01
43  4.2000000000000E-01  9.2810634456085E-01  1.2231304060102E+00  3.1190209003962E-01
44  4.3000000000000E-01  8.2509593322016E-01  1.2877472308444E+00  3.1771586454276E-01
45  4.4000000000000E-01  7.1808973267973E-01  1.3543330214800E+00  3.1757901108842E-01
46  4.5000000000000E-01  6.0777538483989E-01  1.4223131810621E+00  3.1165816677660E-01
47  4.6000000000000E-01  4.9493269119757E-01  1.4909512173434E+00  3.0039773167196E-01
48  4.7000000000000E-01  3.8042534835087E-01  1.5593591678750E+00  2.8451153173278E-01
49  4.8000000000000E-01  2.6518987054727E-01  1.6265134547090E+00  2.6496522379990E-01
50  4.9000000000000E-01  1.5022192920753E-01  1.6912757853330E+00  2.4294993004296E-01
51  5.0000000000000E-01  3.6560424064426E-02  1.7524185498626E+00  2.1984787436273E-01
52  5.1000000000000E-01 -7.4730323770466E-02  1.8086540144529E+00  1.9719105385372E-01
53  5.2000000000000E-01 -1.8257980240692E-01  1.8586664824950E+00  1.7661420591231E-01
54  5.3000000000000E-01 -2.8593145868577E-01  1.9011464927535E+00  1.5980351846636E-01
55  5.4000000000000E-01 -3.8376322697559E-01  1.9348260506754E+00  1.4844267088529E-01
56  5.5000000000000E-01 -4.7510787946754E-01  1.9585138481570E+00  1.4415788184365E-01
57  5.6000000000000E-01 -5.5907263939654E-01  1.9711294195438E+00  1.4846367484822E-01
58  5.7000000000000E-01 -6.3485751531187E-01  1.9717352078699E+00  1.6271105126306E-01
59  5.8000000000000E-01 -7.0177184820939E-01  1.9595655745153E+00  1.8803968529384E-01
60  5.9000000000000E-01 -7.5924861296469E-01  1.9340518756197E+00  2.2533562819014E-01
61  6.0000000000000E-01 -8.0685607947395E-01  1.8948428467647E+00  2.7519583433310E-01
62  6.1000000000000E-01 -8.4430651514102E-01  1.8418196796666E+00  3.3790060591883E-01
63  6.2000000000000E-01 -8.7146169634142E-01  1.7751053361427E+00  4.1339480308880E-01
64  6.3000000000000E-01 -8.8833508942101E-01  1.6950678199946E+00  5.0127839116603E-01
65  6.4000000000000E-01 -8.9509065857632E-01  1.6023173107819E+00  6.0080660558069E-01
66  6.5000000000000E-01 -8.9203835542089E-01  1.4976972485697E+00  7.1089971804398E-01
67  6.6000000000000E-01 -8.7962643994366E-01  1.3822696393893E+00  8.3016209467233E-01
68  6.7000000000000E-01 -8.5843087178394E-01  1.2572950212850E+00  9.5690995798975E-01
69  6.8000000000000E-01 -8.2914209135274E-01  1.1242076847469E+00  1.0892070094059E+00
70  6.9000000000000E-01 -7.9254957969103E-01  9.8458687393124E-01  1.2249068453759E+00
71  7.0000000000000E-01 -7.4952464183886E-01  8.4012480199297E-01  1.3617009162822E+00
72  7.1000000000000E-01 -7.0100189912892E-01  6.9259239166028E-01  1.4971706379978E+00
73  7.2000000000000E-01 -6.4795999998521E-01  5.4380369846469E-01  1.6288421762659E+00
74  7.3000000000000E-01 -5.9140206585140E-01  3.9557998752521E-01  1.7542423858264E+00
75  7.4000000000000E-01 -5.3233637874347E-01  2.4971441537073E-01  1.8709544000817E+00
76  7.5000000000000E-01 -4.7175779017714E-01  1.0793821705970E-01  1.9766714315037E+00
77  7.6000000000000E-01 -4.1063028901550E-01 -2.8110781929246E-02  2.0692474545215E+00
78  7.7000000000000E-01 -3.4987110981994E-01 -1.5691661657247E-01  2.1467435960504E+00
79  7.8000000000000E-01 -2.9033669578483E-01 -2.7711001237318E-01  2.2074692472082E+00
80  7.9000000000000E-01 -2.3281075395056E-01 -3.8748915662962E-01  2.2500171247200E+00
81  8.0000000000000E-01 -1.7799455813121E-01 -4.8703612923071E-01  2.2732917424235E+00
82  8.1000000000000E-01 -1.2649957016540E-01 -5.7492887191672E-01  2.2765309915614E+00
83  8.2000000000000E-01 -7.8842366172423E-02 -6.5054873299698E-01  2.2593207619230E+00
84  8.3000000000000E-01 -3.5441775057938E-02 -7.1348377295368E-01  2.2216027527064E+00
85  8.4000000000000E-01  3.3819348512566E-03 -7.6352814812016E-01  2.1636758104390E+00
86  8.5000000000000E-01  3.7406044935517E-02 -8.0067799775019E-01  2.0861912797789E+00
87  8.6000000000000E-01  6.6502819858822E-02 -8.2512433760789E-01  1.9901429502487E+00
88  8.7000000000000E-01  9.0635680899332E-02 -8.3724350438116E-01  1.8768522171873E+00
89  8.8000000000000E-01  1.0985441982578E-01 -8.3758569388535E-01  1.7479490383977E+00
90  8.9000000000000E-01  1.2428973574075E-01 -8.2686208677180E-01  1.6053491497771E+00
91  9.0000000000000E-01  1.3414733262500E-01 -8.0593095339397E-01  1.4512277951247E+00
92  9.1000000000000E-01  1.3970174206650E-01 -7.7578297013046E-01  1.2879899194174E+00
93  9.2000000000000E-01  1.4128993182372E-01 -7.3752575878303E-01  1.1182363639763E+00
94  9.3000000000000E-01  1.3930462452824E-01 -6.9236737479861E-01  9.4472507917256E-01
95  9.4000000000000E-01  1.3418708017307E-01 -6.4159811539632E-01  7.7032572916395E-01
96  9.5000000000000E-01  1.2641888921237E-01 -5.8656959150699E-01  5.9796529692318E-01
97  9.6000000000000E-01  1.1651207816485E-01 -5.2866950385134E-01  4.3056139955248E-01
98  9.7000000000000E-01  1.0499654442286E-01 -4.6928997921272E-01  2.7093898597915E-01
99  9.8000000000000E-01  9.2403509133728E-02 -4.0978665324986E-01  1.2172490329124E-01
100  9.9000000000000E-01  7.9243302526885E-02 -3.5142492264916E-01 -1.4786532744840E-02
101  1.0000000000000E+00  6.5975424321160E-02 -2.9530905395685E-01 -1.3680499526971E-01
102  1.0100000000000E+00  5.2969285642753E-02 -2.4229115270252E-01 -2.4325603921801E-01
103  1.0200000000000E+00  4.0494496944629E-02 -1.9295475175342E-01 -3.3377073052426E-01
104  1.0300000000000E+00  2.8766411888082E-02 -1.4773112892199E-01 -4.0832779319302E-01
105  1.0400000000000E+00  1.7958883844296E-02 -1.0693262981904E-01 -4.6715672582847E-01
106  1.0500000000000E+00  8.2058158009544E-03 -7.0758277299263E-02 -5.1072310593123E-01
107  1.0600000000000E+00 -3.9654918834257E-04 -3.9301207983572E-02 -5.3970998467440E-01
108  1.0700000000000E+00 -7.7867987864605E-03 -1.2557518069045E-02 -5.5499605334376E-01
109  1.0800000000000E+00 -1.3935187804797E-02  9.5639155288545E-03 -5.5763134353030E-01
110  1.0900000000000E+00 -1.8840335918524E-02  2.7231062934403E-02 -5.4881123511381E-01
111  1.1000000000000E+00 -2.2525963390239E-02  4.0678210968775E-02 -5.2984951484246E-01
112  1.1100000000000E+00 -2.5037815871669E-02  5.0195622616974E-02 -5.0215117312679E-01
113  1.1200000000000E+00 -2.6440903488147E-02  5.6119689517822E-02 -4.6718557799820E-01
114  1.1300000000000E+00 -2.6817141995647E-02  5.8823809628965E-02 -4.2646055619342E-01
115  1.1400000000000E+00 -2.6263454304640E-02  5.8710168975625E-02 -3.8149784554516E-01
116  1.1500000000000E+00 -2.4890360472050E-02  5.6202550061950E-02 -3.3381030477976E-01
117  1.1600000000000E+00 -2.2821039840033E-02  5.1740199387494E-02 -2.8488110687195E-01
118  1.1700000000000E+00 -2.0190813578650E-02  4.5772727074680E-02 -2.3614509774428E-01
119  1.1800000000000E+00 -1.7147194324853E-02  3.8756353673834E-02 -1.8897283404097E-01
120  1.1900000000000E+00 -1.3852615563004E-02  3.1155295960613E-02 -1.4466189708020E-01
121  1.2000000000000E+00 -1.0563535825628E-02  2.3580192163065E-02 -1.0458904282490E-01
122  1.2100000000000E+00 -7.4608948364178E-03  1.6483613356559E-02 -6.9846826441376E-02
123  1.2200000000000E+00 -4.6704867436508E-03  1.0192571796910E-02 -4.1277364612818E-02
124  1.2300000000000E+00 -2.3593162648536E-03  5.0788688611540E-03 -1.9668198106344E-02
125  1.2400000000000E+00 -7.2391099953155E-04  1.5360076126970E-03 -5.6940191363004E-03
126  1.2500000000000E+00 -2.5587203404631E-05  5.3414994674086E-05 -1.8914713145472E-04
127  1.2600000000000E+00 -2.5473289834592E-06  5.3357497200825E-06 -1.9020460855031E-05
128  1.2700000000000E+00  8.4346015259258E-07 -1.7784333491225E-06  6.4672570533345E-06
129  1.28  0.  0.  0.
130  1.29  0.  0.  0.
131  1.30  0.  0.  0.
132  1.31  0.  0.  0.
133  1.32  0.  0.  0.
134  1.33  0.  0.  0.
135  1.34  0.  0.  0.
136  1.35  0.  0.  0.
137  1.36  0.  0.  0.
138  1.37  0.  0.  0.
139  1.38  0.  0.  0.
140  1.39  0.  0.  0.
141  1.40  0.  0.  0.
142  1.41  0.  0.  0.
143  1.42  0.  0.  0.
144  1.43  0.  0.  0.
145  1.44  0.  0.  0.
146  1.45  0.  0.  0.
147  1.46  0.  0.  0.
148  1.47  0.  0.  0.
149  1.48  0.  0.  0.
150  1.49  0.  0.  0.
151  1.50  0.  0.  0.
152  1.51  0.  0.  0.
153  1.52  0.  0.  0.
154  1.53  0.  0.  0.
155  1.54  0.  0.  0.
156  1.55  0.  0.  0.
157  1.56  0.  0.  0.
158  1.57  0.  0.  0.
159  1.58  0.  0.  0.
160  1.59  0.  0.  0.
161  1.60  0.  0.  0.
162  1.61  0.  0.  0.
163  1.62  0.  0.  0.
164  1.63  0.  0.  0.
165  1.64  0.  0.  0.
166  1.65  0.  0.  0.
167  1.66  0.  0.  0.
168  1.67  0.  0.  0.
169  1.68  0.  0.  0.
170  1.69  0.  0.  0.
171  1.70  0.  0.  0.
172  1.71  0.  0.  0.
173  1.72  0.  0.  0.
174  1.73  0.  0.  0.
175  1.74  0.  0.  0.
176  1.75  0.  0.  0.
177  1.76  0.  0.  0.
178  1.77  0.  0.  0.
179  1.78  0.  0.  0.
180  1.79  0.  0.  0.
181  1.80  0.  0.  0.
182  1.81  0.  0.  0.
183  1.82  0.  0.  0.
184  1.83  0.  0.  0.
185  1.84  0.  0.  0.
186  1.85  0.  0.  0.
187  1.86  0.  0.  0.
188  1.87  0.  0.  0.
189  1.88  0.  0.  0.
190  1.89  0.  0.  0.
191  1.90  0.  0.  0.
192  1.91  0.  0.  0.
193  1.92  0.  0.  0.
194  1.93  0.  0.  0.
195  1.94  0.  0.  0.
196  1.95  0.  0.  0.
197  1.96  0.  0.  0.
198  1.97  0.  0.  0.
199  1.98  0.  0.  0.
200  1.99  0.  0.  0.
201  2.00  0.  0.  0.
202  2.01  0.  0.  0.
203  2.02  0.  0.  0.
204  2.03  0.  0.  0.
205  2.04  0.  0.  0.
206  2.05  0.  0.  0.
207  2.06  0.  0.  0.
208  2.07  0.  0.  0.
209  2.08  0.  0.  0.
210  2.09  0.  0.  0.
211  2.10  0.  0.  0.
212  2.11  0.  0.  0.
213  2.12  0.  0.  0.
214  2.13  0.  0.  0.
215  2.14  0.  0.  0.
216  2.15  0.  0.  0.
217  2.16  0.  0.  0.
218  2.17  0.  0.  0.
219  2.18  0.  0.  0.
220  2.19  0.  0.  0.
221  2.20  0.  0.  0.
222  2.21  0.  0.  0.
223  2.22  0.  0.  0.
224  2.23  0.  0.  0.
225  2.24  0.  0.  0.
226  2.25  0.  0.  0.
227  2.26  0.  0.  0.
228  2.27  0.  0.  0.
229  2.28  0.  0.  0.
230  2.29  0.  0.  0.
231  2.30  0.  0.  0.
232  2.31  0.  0.  0.
233  2.32  0.  0.  0.
234  2.33  0.  0.  0.
235  2.34  0.  0.  0.
236  2.35  0.  0.  0.
237  2.36  0.  0.  0.
238  2.37  0.  0.  0.
239  2.38  0.  0.  0.
240  2.39  0.  0.  0.
241  2.40  0.  0.  0.
242  2.41  0.  0.  0.
243  2.42  0.  0.  0.
244  2.43  0.  0.  0.
245  2.44  0.  0.  0.
246  2.45  0.  0.  0.
247  2.46  0.  0.  0.
248  2.47  0.  0.  0.
249  2.48  0.  0.  0.
250  2.49  0.  0.  0.
251  2.50  0.  0.  0.
252  2.51  0.  0.  0.
253  2.52  0.  0.  0.
254  2.53  0.  0.  0.
255  2.54  0.  0.  0.
256  2.55  0.  0.  0.
257  2.56  0.  0.  0.
258  2.57  0.  0.  0.
259  2.58  0.  0.  0.
260  2.59  0.  0.  0.
261  2.60  0.  0.  0.
262  2.61  0.  0.  0.
263  2.62  0.  0.  0.
264  2.63  0.  0.  0.
265  2.64  0.  0.  0.
266  2.65  0.  0.  0.
267  2.66  0.  0.  0.
268  2.67  0.  0.  0.
269  2.68  0.  0.  0.
270  2.69  0.  0.  0.
271  2.70  0.  0.  0.
272  2.71  0.  0.  0.
273  2.72  0.  0.  0.
274  2.73  0.  0.  0.
275  2.74  0.  0.  0.
276  2.75  0.  0.  0.
277  2.76  0.  0.  0.
278  2.77  0.  0.  0.
279  2.78  0.  0.  0.
280  2.79  0.  0.  0.
281  2.80  0.  0.  0.
282  2.81  0.  0.  0.
283  2.82  0.  0.  0.
284  2.83  0.  0.  0.
285  2.84  0.  0.  0.
286  2.85  0.  0.  0.
287  2.86  0.  0.  0.
288  2.87  0.  0.  0.
289  2.88  0.  0.  0.
290  2.89  0.  0.  0.
291  2.90  0.  0.  0.
292  2.91  0.  0.  0.
293  2.92  0.  0.  0.
294  2.93  0.  0.  0.
295  2.94  0.  0.  0.
296  2.95  0.  0.  0.
297  2.96  0.  0.  0.
298  2.97  0.  0.  0.
299  2.98  0.  0.  0.
300  2.99  0.  0.  0.
301  3.00  0.  0.  0.
302  3.01  0.  0.  0.
303  3.02  0.  0.  0.
304  3.03  0.  0.  0.
305  3.04  0.  0.  0.
306  3.05  0.  0.  0.
307  3.06  0.  0.  0.
308  3.07  0.  0.  0.
309  3.08  0.  0.  0.
310  3.09  0.  0.  0.
311  3.10  0.  0.  0.
312  3.11  0.  0.  0.
313  3.12  0.  0.  0.
314  3.13  0.  0.  0.
315  3.14  0.  0.  0.
316  3.15  0.  0.  0.
317  3.16  0.  0.  0.
318  3.17  0.  0.  0.
319  3.18  0.  0.  0.
320  3.19  0.  0.  0.
321  3.20  0.  0.  0.
322  3.21  0.  0.  0.
323  3.22  0.  0.  0.
324  3.23  0.  0.  0.
325  3.24  0.  0.  0.
326  3.25  0.  0.  0.
327  3.26  0.  0.  0.
328  3.27  0.  0.  0.
329  3.28  0.  0.  0.
330  3.29  0.  0.  0.
331  3.30  0.  0.  0.
332  3.31  0.  0.  0.
333  3.32  0.  0.  0.
334  3.33  0.  0.  0.
335  3.34  0.  0.  0.
336  3.35  0.  0.  0.
337  3.36  0.  0.  0.
338  3.37  0.  0.  0.
339  3.38  0.  0.  0.
340  3.39  0.  0.  0.
341  3.40  0.  0.  0.
342  3.41  0.  0.  0.
343  3.42  0.  0.  0.
344  3.43  0.  0.  0.
345  3.44  0.  0.  0.
346  3.45  0.  0.  0.
347  3.46  0.  0.  0.
348  3.47  0.  0.  0.
349  3.48  0.  0.  0.
350  3.49  0.  0.  0.
351  3.50  0.  0.  0.
352  3.51  0.  0.  0.
353  3.52  0.  0.  0.
354  3.53  0.  0.  0.
355  3.54  0.  0.  0.
356  3.55  0.  0.  0.
357  3.56  0.  0.  0.
358  3.57  0.  0.  0.
359  3.58  0.  0.  0.
360  3.59  0.  0.  0.
361  3.60  0.  0.  0.
362  3.61  0.  0.  0.
363  3.62  0.  0.  0.
364  3.63  0.  0.  0.
365  3.64  0.  0.  0.
366  3.65  0.  0.  0.
367  3.66  0.  0.  0.
368  3.67  0.  0.  0.
369  3.68  0.  0.  0.
370  3.69  0.  0.  0.
371  3.70  0.  0.  0.
372  3.71  0.  0.  0.
373  3.72  0.  0.  0.
374  3.73  0.  0.  0.
375  3.74  0.  0.  0.
376  3.75  0.  0.  0.
377  3.76  0.  0.  0.
378  3.77  0.  0.  0.
379  3.78  0.  0.  0.
380  3.79  0.  0.  0.
381  3.80  0.  0.  0.
382  3.81  0.  0.  0.
383  3.82  0.  0.  0.
384  3.83  0.  0.  0.
385  3.84  0.  0.  0.
386  3.85  0.  0.  0.
387  3.86  0.  0.  0.
388  3.87  0.  0.  0.
389  3.88  0.  0.  0.
390  3.89  0.  0.  0.
391  3.90  0.  0.  0.
392  3.91  0.  0.  0.
393  3.92  0.  0.  0.
394  3.93  0.  0.  0.
395  3.94  0.  0.  0.
396  3.95  0.  0.  0.
397  3.96  0.  0.  0.
398  3.97  0.  0.  0.
399  3.98  0.  0.  0.
400  3.99  0.  0.  0.
401  4.00  0.  0.  0.
402  4.01  0.  0.  0.
403  4.02  0.  0.  0.
404  4.03  0.  0.  0.
405  4.04  0.  0.  0.
406  4.05  0.  0.  0.
407  4.06  0.  0.  0.
408  4.07  0.  0.  0.
409  4.08  0.  0.  0.
410  4.09  0.  0.  0.
411  4.10  0.  0.  0.
412  4.11  0.  0.  0.
413  4.12  0.  0.  0.
414  4.13  0.  0.  0.
415  4.14  0.  0.  0.
416  4.15  0.  0.  0.
417  4.16  0.  0.  0.
418  4.17  0.  0.  0.
419  4.18  0.  0.  0.
420  4.19  0.  0.  0.
421  4.20  0.  0.  0.
422  4.21  0.  0.  0.
423  4.22  0.  0.  0.
424  4.23  0.  0.  0.
425  4.24  0.  0.  0.
426  4.25  0.  0.  0.
427  4.26  0.  0.  0.
428  4.27  0.  0.  0.
429  4.28  0.  0.  0.
430  4.29  0.  0.  0.
431  4.30  0.  0.  0.
432  4.31  0.  0.  0.
433  4.32  0.  0.  0.
434  4.33  0.  0.  0.
435  4.34  0.  0.  0.
436  4.35  0.  0.  0.
437  4.36  0.  0.  0.
438  4.37  0.  0.  0.
439  4.38  0.  0.  0.
440  4.39  0.  0.  0.
441  4.40  0.  0.  0.
442  4.41  0.  0.  0.
443  4.42  0.  0.  0.
444  4.43  0.  0.  0.
445  4.44  0.  0.  0.
446  4.45  0.  0.  0.
447  4.46  0.  0.  0.
448  4.47  0.  0.  0.
449  4.48  0.  0.  0.
450  4.49  0.  0.  0.
451  4.50  0.  0.  0.
452  4.51  0.  0.  0.
453  4.52  0.  0.  0.
454  4.53  0.  0.  0.
455  4.54  0.  0.  0.
456  4.55  0.  0.  0.
457  4.56  0.  0.  0.
458  4.57  0.  0.  0.
459  4.58  0.  0.  0.
460  4.59  0.  0.  0.
461  4.60  0.  0.  0.
462  4.61  0.  0.  0.
463  4.62  0.  0.  0.
464  4.63  0.  0.  0.
465  4.64  0.  0.  0.
466  4.65  0.  0.  0.
467  4.66  0.  0.  0.
468  4.67  0.  0.  0.
469  4.68  0.  0.  0.
470  4.69  0.  0.  0.
471  4.70  0.  0.  0.
472  4.71  0.  0.  0.
473  4.72  0.  0.  0.
474  4.73  0.  0.  0.
475  4.74  0.  0.  0.
476  4.75  0.  0.  0.
477  4.76  0.  0.  0.
478  4.77  0.  0.  0.
479  4.78  0.  0.  0.
480  4.79  0.  0.  0.
481  4.80  0.  0.  0.
482  4.81  0.  0.  0.
483  4.82  0.  0.  0.
484  4.83  0.  0.  0.
485  4.84  0.  0.  0.
486  4.85  0.  0.  0.
487  4.86  0.  0.  0.
488  4.87  0.  0.  0.
489  4.88  0.  0.  0.
490  4.89  0.  0.  0.
491  4.90  0.  0.  0.
492  4.91  0.  0.  0.
493  4.92  0.  0.  0.
494  4.93  0.  0.  0.
495  4.94  0.  0.  0.
496  4.95  0.  0.  0.
497  4.96  0.  0.  0.
498  4.97  0.  0.  0.
499  4.98  0.  0.  0.
500  4.99  0.  0.  0.
501  5.00  0.  0.  0.
502  5.01  0.  0.  0.
503  5.02  0.  0.  0.
504  5.03  0.  0.  0.
505  5.04  0.  0.  0.
506  5.05  0.  0.  0.
507  5.06  0.  0.  0.
508  5.07  0.  0.  0.
509  5.08  0.  0.  0.
510  5.09  0.  0.  0.
511  5.10  0.  0.  0.
512  5.11  0.  0.  0.
513  5.12  0.  0.  0.
514  5.13  0.  0.  0.
515  5.14  0.  0.  0.
516  5.15  0.  0.  0.
517  5.16  0.  0.  0.
518  5.17  0.  0.  0.
519  5.18  0.  0.  0.
520  5.19  0.  0.  0.
521  5.20  0.  0.  0.
522  5.21  0.  0.  0.
523  5.22  0.  0.  0.
524  5.23  0.  0.  0.
525  5.24  0.  0.  0.
526  5.25  0.  0.  0.
527  5.26  0.  0.  0.
528  5.27  0.  0.  0.
529  5.28  0.  0.  0.
530  5.29  0.  0.  0.
531  5.30  0.  0.  0.
532  5.31  0.  0.  0.
533  5.32  0.  0.  0.
534  5.33  0.  0.  0.
535  5.34  0.  0.  0.
536  5.35  0.  0.  0.
537  5.36  0.  0.  0.
538  5.37  0.  0.  0.
539  5.38  0.  0.  0.
540  5.39  0.  0.  0.
541  5.40  0.  0.  0.
542  5.41  0.  0.  0.
543  5.42  0.  0.  0.
544  5.43  0.  0.  0.
545  5.44  0.  0.  0.
546  5.45  0.  0.  0.
547  5.46  0.  0.  0.
548  5.47  0.  0.  0.
549  5.48  0.  0.  0.
550  5.49  0.  0.  0.
551  5.50  0.  0.  0.
552  5.51  0.  0.  0.
553  5.52  0.  0.  0.
554  5.53  0.  0.  0.
555  5.54  0.  0.  0.
556  5.55  0.  0.  0.
557  5.56  0.  0.  0.
558  5.57  0.  0.  0.
559  5.58  0.  0.  0.
560  5.59  0.  0.  0.
561  5.60  0.  0.  0.
562  5.61  0.  0.  0.
563  5.62  0.  0.  0.
564  5.63  0.  0.  0.
565  5.64  0.  0.  0.
566  5.65  0.  0.  0.
567  5.66  0.  0.  0.
568  5.67  0.  0.  0.
569  5.68  0.  0.  0.
570  5.69  0.  0.  0.
571  5.70  0.  0.  0.
572  5.71  0.  0.  0.
573  5.72  0.  0.  0.
574  5.73  0.  0.  0.
575  5.74  0.  0.  0.
576  5.75  0.  0.  0.
577  5.76  0.  0.  0.
578  5.77  0.  0.  0.
579  5.78  0.  0.  0.
580  5.79  0.  0.  0.
581  5.80  0.  0.  0.
582  5.81  0.  0.  0.
583  5.82  0.  0.  0.
584  5.83  0.  0.  0.
585  5.84  0.  0.  0.
586  5.85  0.  0.  0.
587  5.86  0.  0.  0.
588  5.87  0.  0.  0.
589  5.88  0.  0.  0.
590  5.89  0.  0.  0.
591  5.90  0.  0.  0.
592  5.91  0.  0.  0.
593  5.92  0.  0.  0.
594  5.93  0.  0.  0.
595  5.94  0.  0.  0.
596  5.95  0.  0.  0.
597  5.96  0.  0.  0.
598  5.97  0.  0.  0.
599  5.98  0.  0.  0.
600  5.99  0.  0.  0.
1                         1.2892436747509E+01  2.1325843269464E+00  1.8800392601453E-02
1  0.0000000000000E+00 -2.2145877909274E-09  9.3209923876514E-09  4.0286916414001E-08
2  1.0000000000000E-02  3.1532415930325E-03 -8.7284646902474E-04  5.5788026848117E-03
3  2.0000000000000E-02  1.2593371849465E-02 -3.4851700563489E-03  2.2225084305780E-02
4  3.0000000000000E-02  2.8261670426657E-02 -7.8182003350576E-03  4.9669872924579E-02
5  4.0000000000000E-02  5.0060482467566E-02 -1.3840249472931E-02  8.7469549702308E-02
6  5.0000000000000E-02  7.7853542807601E-02 -2.1506127732315E-02  1.3501276872712E-01
7  6.0000000000000E-02  1.1146644089425E-01 -3.0756366864423E-02  1.9152998278601E-01
8  7.0000000000000E-02  1.5068723689279E-01 -4.1516291553981E-02  2.5610541663287E-01
9  8.0000000000000E-02  1.9526724166592E-01 -5.3694988391086E-02  3.2769128901766E-01
10  9.0000000000000E-02  2.4492197497674E-01 -6.7184229633744E-02  4.0512404805436E-01
11  1.0000000000000E-01  2.9933231728265E-01 -8.1857415021265E-02  4.8714235207588E-01
12  1.1000000000000E-01  3.5814587079097E-01 -9.7568598898944E-02  5.7240650052611E-01
13  1.2000000000000E-01  4.2097854498409E-01 -1.1415167176572E-01  6.5951899715024E-01
14  1.3000000000000E-01  4.8741638056388E-01 -1.3141976496468E-01  7.4704591113913E-01
15  1.4000000000000E-01  5.5701762370676E-01 -1.4916494457001E-01  8.3353869123223E-01
16  1.5000000000000E-01  6.2931505968135E-01 -1.6715825561466E-01  9.1755608323176E-01
17  1.6000000000000E-01  7.0381861130219E-01 -1.8515017074609E-01  9.9768580296589E-01
18  1.7000000000000E-01  7.8001820344303E-01 -2.0287148835018E-01  1.0725656243743E+00
19  1.8000000000000E-01  8.5738688999926E-01 -2.2003471436109E-01  1.1409035558747E+00
20  1.9000000000000E-01  9.3538423438027E-01 -2.3633594964775E-01  1.2014967971950E+00
21  2.0000000000000E-01  1.0134599289550E+00 -2.5145729135176E-01  1.2532491930016E+00
22  2.1000000000000E-01  1.0910576330098E+00 -2.6506974220375E-01  1.2951869284167E+00
23  2.2000000000000E-01  1.1676190028570E+00 -2.7683660705290E-01  1.3264722442905E+00
24  2.3000000000000E-01  1.2425878819196E+00 -2.8641734101506E-01  1.3464149862222E+00
25  2.4000000000000E-01  1.3154146130691E+00 -2.9347179919783E-01  1.3544818400719E+00
26  2.5000000000000E-01  1.3855604303792E+00 -2.9766482431188E-01  1.3503031473139E+00
27  2.6000000000000E-01  1.4525018829288E+00 -2.9867109603365E-01  1.3336772352566E+00
28  2.7000000000000E-01  1.5157352394939E+00 -2.9618015512418E-01  1.3045722390971E+00
29  2.8000000000000E-01  1.5747808200407E+00 -2.8990150638110E-01  1.2631254341896E+00
30  2.9000000000000E-01  1.6291871979898E+00 -2.7956969780489E-01  1.2096401370323E+00
31  3.0000000000000E-01  1.6785352163522E+00 -2.6494926914575E-01  1.1445802715744E+00
32  3.1000000000000E-01  1.7224417611148E+00 -2.4583946144697E-01  1.0685627328628E+00
33  3.2000000000000E-01  1.7605632367179E+00 -2.2207858043099E-01  9.8234771216340E-01
34  3.3000000000000E-01  1.7925986911274E+00 -1.9354791062788E-01  8.8682717601071E-01
35  3.4000000000000E-01  1.8182925418480E+00 -1.6017508398662E-01  7.8301171571332E-01
36  3.5000000000000E-01  1.8374368591961E+00 -1.2193681622579E-01  6.7201600335605E-01
37  3.6000000000000E-01  1.8498731691813E+00 -7.8860936183105E-02  5.5504310506755E-01
38  3.7000000000000E-01  1.8554937453116E+00 -3.1027647649438E-02  4.3336791214309E-01
39  3.8000000000000E-01  1.8542423664239E+00  2.1430020705181E-02  3.0831995551992E-01
40  3.9000000000000E-01  1.8461145260699E+00  7.8326604080197E-02  1.8126586920067E-01
41  4.0000000000000E-01  1.8311570878932E+00  1.3942543704237E-01  5.3591763683734E-02
42  4.1000000000000E-01  1.8094673906117E+00  2.0444072457017E-01 -7.3314238400357E-02
43  4.2000000000000E-01  1.7811918154745E+00  2.7304041808440E-01 -1.9807906508136E-01
44  4.3000000000000E-01  1.7465238381654E+00  3.4484984698646E-01 -3.1936113326382E-01
45  4.4000000000000E-01  1.7057015958822E+00  4.1945603826410E-01 -4.3586595874464E-01
46  4.5000000000000E-01  1.6590050085107E+00  4.9641264022224E-01 -5.4636075629247E-01
47  4.6000000000000E-01  1.6067525002442E+00  5.7524535182362E-01 -6.4968787185048E-01
48  4.7000000000000E-01  1.5492973744890E+00  6.5545774690941E-01 -7.4477691406409E-01
49  4.8000000000000E-01  1.4870239002929E+00  7.3653737308094E-01 -8.3065547824335E-01
50  4.9000000000000E-01  1.4203431726923E+00  8.1796199856175E-01 -9.0645838198174E-01
51  5.0000000000000E-01  1.3496888122032E+00  8.9920587714481E-01 -9.7143535743667E-01
52  5.1000000000000E-01  1.2755125701028E+00  9.7974590149659E-01 -1.0249571702569E+00
53  5.2000000000000E-01  1.1982799061347E+00  1.0590675186804E+00 -1.0665201588726E+00
54  5.3000000000000E-01  1.1184656038196E+00  1.1366702887210E+00 -1.0957492099836E+00
55  5.4000000000000E-01  1.0365494857018E+00  1.2120729772151E+00 -1.1123992062881E+00
56  5.5000000000000E-01  9.5301228669590E-01  1.2848180861521E+00 -1.1163550005487E+00
57  5.6000000000000E-01  8.6833173831156E-01  1.3544757429264E+00 -1.1076299858444E+00
58  5.7000000000000E-01  7.8297891008045E-01  1.4206468855824E+00 -1.0863633452142E+00
59  5.8000000000000E-01  6.9741484715027E-01  1.4829657021664E+00 -1.0528160748368E+00
60  5.9000000000000E-01  6.1208753493866E-01  1.5411013031372E+00 -1.0073658834538E+00
61  6.0000000000000E-01  5.2742921316346E-01  1.5947586275385E+00 -9.5050107702318E-01
62  6.1000000000000E-01  4.4385405270450E-01  1.6436786054657E+00 -8.8281354171731E-01
63  6.2000000000000E-01  3.6175619983344E-01  1.6876376206686E+00 -8.0499094053002E-01
64  6.3000000000000E-01  2.8150818359523E-01  1.7264463373251E+00 -7.1780823911987E-01
65  6.4000000000000E-01  2.0345967375797E-01  1.7599479735315E+00 -6.2211867529286E-01
66  6.5000000000000E-01  1.2793656897201E-01  1.7880161203586E+00 -5.1884428392870E-01
67  6.6000000000000E-01  5.5240387782378E-02  1.8105522189474E+00 -4.0896608537133E-01
68  6.7000000000000E-01 -1.4352070913523E-02  1.8274828186640E+00 -2.9351404052341E-01
69  6.8000000000000E-01 -8.0588836339800E-02  1.8387567464769E+00 -1.7355687026131E-01
70  6.9000000000000E-01 -1.4324268539947E-01  1.8443423212186E+00 -5.0191830463805E-02
71  7.0000000000000E-01 -2.0211091797049E-01  1.8442247461096E+00  7.5465472975600E-02
72  7.1000000000000E-01 -2.5701503377832E-01  1.8384038087840E+00  2.0229115221336E-01
73  7.2000000000000E-01 -3.0780035652911E-01  1.8268920101064E+00  3.2916291953872E-01
74  7.3000000000000E-01 -3.5433564950823E-01  1.8097132314149E+00  4.5496972268796E-01
75  7.4000000000000E-01 -3.9651276408310E-01  1.7869020346535E+00  5.7862108122981E-01
76  7.5000000000000E-01 -4.3424635855555E-01  1.7585036714236E+00  6.9905608077743E-01
77  7.6000000000000E-01 -4.6747371966543E-01  1.7245748555800E+00  8.1525199091759E-01
78  7.7000000000000E-01 -4.9615471284286E-01  1.6851853299653E+00  9.2623248198830E-01
79  7.8000000000000E-01 -5.2027188013565E-01  1.6404202315564E+00  1.0310754250172E+00
80  7.9000000000000E-01 -5.3983069669669E-01  1.5903832310450E+00  1.1289202680243E+00
81  8.0000000000000E-01 -5.5485998789147E-01  1.5352003930124E+00  1.2189749901815E+00
82  8.1000000000000E-01 -5.6541249955468E-01  1.4750246716862E+00  1.3005226425910E+00
83  8.2000000000000E-01 -5.7156560374458E-01  1.4100409250153E+00  1.3729274901851E+00
84  8.3000000000000E-01 -5.7342211155079E-01  1.3404712966498E+00  1.4356407728017E+00
85  8.4000000000000E-01 -5.7111115311174E-01  1.2665807814418E+00  1.4882061040982E+00
86  8.5000000000000E-01 -5.6478907297052E-01  1.1886827553106E+00  1.5302645237064E+00
87  8.6000000000000E-01 -5.5464027618463E-01  1.1071442146200E+00  1.5615592098546E+00
88  8.7000000000000E-01 -5.4087794711552E-01  1.0223904334076E+00  1.5819398454064E+00
89  8.8000000000000E-01 -5.2374454842965E-01  9.3490870857092E-01  1.5913666085260E+00
90  8.9000000000000E-01 -5.0351199238095E-01  8.4525082302708E-01  1.5899137285295E+00
91  9.0000000000000E-01 -4.8048135971622E-01  7.5403381440639E-01  1.5777725062745E+00