Am    ONCVPSP-4.0.1  r_core=   1.00079   1.00079   1.00079   1.10131
95.0000     35.0000      230613    zatom,zion,pspd
8      11   3     4   600     0    pspcod,pspxc,lmax,lloc,mmax,r2well
5.99000000  3.50000000  0.00000000    rchrg fchrg qchrg
3     2     2     2     0    nproj
1     1           extension_switch
0                         5.9275587150674E+01  5.2933538719596E+00 -5.8797911498793E-01
1  0.0000000000000E+00 -1.0714540970014E-06  3.7382829083388E-06  1.0576465584444E-06
2  1.0000000000000E-02  1.8594430285012E-01 -1.7181202645661E-01 -2.2720296564074E-02
3  2.0000000000000E-02  3.6902368315253E-01 -3.3568344610287E-01 -4.3204529673956E-02
4  3.0000000000000E-02  5.4648884970367E-01 -4.8406976433709E-01 -5.9337125751977E-02
5  4.0000000000000E-02  7.1581589633779E-01 -6.1019816812964E-01 -6.9237440365131E-02
6  5.0000000000000E-02  8.7480460696780E-01 -7.0840307911199E-01 -7.1362397168812E-02
7  6.0000000000000E-02  1.0216603382567E+00 -7.7440430013292E-01 -6.4592163552353E-02
8  7.0000000000000E-02  1.1550553629412E+00 -8.0551335352788E-01 -4.8294543276972E-02
9  8.0000000000000E-02  1.2741666282831E+00 -8.0075734763069E-01 -2.2364824043291E-02
10  9.0000000000000E-02  1.3786881143471E+00 -7.6091400155003E-01  1.2760962874071E-02
11  1.0000000000000E-01  1.4688173015389E+00 -6.8845608344271E-01  5.6120093901346E-02
12  1.1000000000000E-01  1.5452166069049E+00 -5.8740823369620E-01  1.0626388359366E-01
13  1.2000000000000E-01  1.6089519535506E+00 -4.6312370607585E-01  1.6132314039396E-01
14  1.3000000000000E-01  1.6614118290130E+00 -3.2199272956088E-01  2.1909517028463E-01
15  1.4000000000000E-01  1.7042112042465E+00 -1.7109775422007E-01  2.7714808650190E-01
16  1.5000000000000E-01  1.7390854719416E+00 -1.7833610757861E-02  3.3293733101225E-01
17  1.6000000000000E-01  1.7677800800279E+00  1.3048755867647E-01  3.8392871490486E-01
18  1.7000000000000E-01  1.7919417563413E+00  2.6702594624036E-01  4.2772196944461E-01
19  1.8000000000000E-01  1.8130171319945E+00  3.8577792858484E-01  4.6216878223192E-01
20  1.9000000000000E-01  1.8321641785429E+00  4.8189508928643E-01  4.8547957374629E-01
21  2.0000000000000E-01  1.8501811980320E+00  5.5194171116954E-01  4.9631383358771E-01
22  2.1000000000000E-01  1.8674571807059E+00  5.9407723444029E-01  4.9384965394193E-01
23  2.2000000000000E-01  1.8839462208057E+00  6.0815407646965E-01  4.7782912846636E-01
24  2.3000000000000E-01  1.8991674151869E+00  5.9572560745281E-01  4.4857747574373E-01
25  2.4000000000000E-01  1.9122303285172E+00  5.5996374391785E-01  4.0699503763506E-01
26  2.5000000000000E-01  1.9218847626015E+00  5.0549031616347E-01  3.5452262945549E-01
27  2.6000000000000E-01  1.9265922861673E+00  4.3813084203403E-01  2.9308201457749E-01
28  2.7000000000000E-01  1.9246158320872E+00  3.6460336537694E-01  2.2499447636601E-01
29  2.8000000000000E-01  1.9141227114052E+00  2.9215838427549E-01  1.5288150591804E-01
30  2.9000000000000E-01  1.8932956775350E+00  2.2818842751396E-01  7.9552463647735E-02
31  3.0000000000000E-01  1.8604462367572E+00  1.7982740730990E-01  7.8846657195429E-03
32  3.1000000000000E-01  1.8141242652124E+00  1.5356040226355E-01 -5.9298335264136E-02
33  3.2000000000000E-01  1.7532181647327E+00  1.5486398148531E-01 -1.1934447600122E-01
34  3.3000000000000E-01  1.6770402606920E+00  1.8789559967433E-01 -1.6988137319289E-01
35  3.4000000000000E-01  1.5853928896153E+00  2.5524805837873E-01 -2.0890996812592E-01
36  3.5000000000000E-01  1.4786116033092E+00  3.5778167527041E-01 -2.3487938801801E-01
37  3.6000000000000E-01  1.3575830783219E+00  4.9454280795798E-01 -2.4673976351996E-01
38  3.7000000000000E-01  1.2237366037339E+00  6.6277295156901E-01 -2.4397086983760E-01
39  3.8000000000000E-01  1.0790093595214E+00  8.5800800190594E-01 -2.2658568028356E-01
40  3.9000000000000E-01  9.2578702228841E-01  1.0742626897774E+00 -1.9510917319061E-01
41  4.0000000000000E-01  7.6682247630488E-01  1.3042908853574E+00 -1.5053395246845E-01
42  4.1000000000000E-01  6.0513650150682E-01  1.5399086664791E+00 -9.4255367393879E-02
43  4.2000000000000E-01  4.4390520039887E-01  1.7723639365740E+00 -2.7989792567930E-02
44  4.3000000000000E-01  2.8633956765352E-01  1.9927341237030E+00  4.6319493350272E-02
45  4.4000000000000E-01  1.3556296793719E-01  2.1923322031157E+00  1.2660384864006E-01
46  4.5000000000000E-01 -5.5076476368574E-03  2.3631010218034E+00  2.1077296439017E-01
47  4.6000000000000E-01 -1.3427118900052E-01  2.4979766698634E+00  2.9681543770668E-01
48  4.7000000000000E-01 -2.4853745722785E-01  2.5912033910723E+00  3.8289119989113E-01
49  4.8000000000000E-01 -3.4660344551626E-01  2.6385851532462E+00  4.6741128369432E-01
50  4.9000000000000E-01 -4.2730757975676E-01  2.6376623614426E+00  5.4910114228070E-01
51  5.0000000000000E-01 -4.9005970509917E-01  2.5878061098313E+00  6.2704464280875E-01
52  5.1000000000000E-01 -5.3484585857073E-01  2.4902266198089E+00  7.0070690042735E-01
53  5.2000000000000E-01 -5.6220813159764E-01  2.3478968753811E+00  7.6993523869999E-01
54  5.3000000000000E-01 -5.7320115352104E-01  2.1653967112423E+00  8.3493870146502E-01
55  5.4000000000000E-01 -5.6932785395710E-01  1.9486865126659E+00  8.9624764030213E-01
56  5.5000000000000E-01 -5.5245813034056E-01  1.7048230484444E+00  9.5465590537031E-01
57  5.6000000000000E-01 -5.2473480867264E-01  1.4416326094297E+00  1.0111490254943E+00
58  5.7000000000000E-01 -4.8847180365717E-01  1.1673584370569E+00  1.0668224344283E+00
59  5.8000000000000E-01 -4.4604963595925E-01  8.9030031678050E-01  1.1227942529621E+00
60  5.9000000000000E-01 -3.9981344098921E-01  6.1846414992348E-01  1.1801173515618E+00
61  6.0000000000000E-01 -3.5197831215722E-01  3.5923832530984E-01  1.2396953887987E+00
62  6.1000000000000E-01 -3.0454628322270E-01  1.1911186072985E-01  1.3022072529083E+00
63  6.2000000000000E-01 -2.5923850357458E-01 -9.6553309059196E-02  1.3680438456820E+00
64  6.3000000000000E-01 -2.1744524246049E-01 -2.8368670080425E-01  1.4372604687346E+00
65  6.4000000000000E-01 -1.8019532714997E-01 -4.3960469172237E-01  1.5095472405264E+00
66  6.5000000000000E-01 -1.4814553484171E-01 -5.6303513154767E-01  1.5842190338337E+00
67  6.6000000000000E-01 -1.2158937967658E-01 -6.5407308583120E-01  1.6602254275968E+00
68  6.7000000000000E-01 -1.0048372388833E-01 -7.1407318524900E-01  1.7361801659455E+00
69  6.8000000000000E-01 -8.4490750260577E-02 -7.4548719406913E-01  1.8104086612612E+00
70  6.9000000000000E-01 -7.3032108153406E-02 -7.5165797854889E-01  1.8810112142729E+00
71  7.0000000000000E-01 -6.5351523503880E-02 -7.3658292573199E-01  1.9459388932265E+00
72  7.1000000000000E-01 -6.0581868049461E-02 -7.0466095032449E-01  2.0030784487224E+00
73  7.2000000000000E-01 -5.7812624882104E-02 -6.6043749328111E-01  2.0503422640944E+00
74  7.3000000000000E-01 -5.6153862694122E-02 -6.0836136967728E-01  2.0857591657629E+00
75  7.4000000000000E-01 -5.4793222803558E-02 -5.5256602055512E-01  2.1075619457259E+00
76  7.5000000000000E-01 -5.3043002046099E-02 -4.9668576147928E-01  2.1142676705610E+00
77  7.6000000000000E-01 -5.0375141656403E-02 -4.4371513226144E-01  2.1047472498212E+00
78  7.7000000000000E-01 -4.6442760106050E-02 -3.9591659849484E-01  2.0782812850403E+00
79  7.8000000000000E-01 -4.1087744683812E-02 -3.5477881346154E-01  2.0345998859748E+00
80  7.9000000000000E-01 -3.4334788759307E-02 -3.2102460281331E-01  1.9739048861403E+00
81  8.0000000000000E-01 -2.6373077308344E-02 -2.9466496294467E-01  1.8968736763120E+00
82  8.1000000000000E-01 -1.7527534998705E-02 -2.7509283135368E-01  1.8046446638179E+00
83  8.2000000000000E-01 -8.2221193210073E-03 -2.6120833161214E-01  1.6987851213962E+00
84  8.3000000000000E-01  1.0619640237947E-03 -2.5156572223561E-01  1.5812428808894E+00
85  8.4000000000000E-01  9.8300432529401E-03 -2.4453145354814E-01  1.4542839292484E+00
86  8.5000000000000E-01  1.7616674209582E-02 -2.3844258227483E-01  1.3204184599491E+00
87  8.6000000000000E-01  2.4024343942784E-02 -2.3175528850262E-01  1.1823183130035E+00
88  8.7000000000000E-01  2.8755636724168E-02 -2.2317431934142E-01  1.0427290008687E+00
89  8.8000000000000E-01  3.1636808104159E-02 -2.1175574451693E-01  9.0437967357848E-01
90  8.9000000000000E-01  3.2631303585665E-02 -1.9697731468387E-01  7.6989443970900E-01
91  9.0000000000000E-01  3.1842399309925E-02 -1.7877280168163E-01  6.4170845203410E-01
92  9.1000000000000E-01  2.9504780166883E-02 -1.5752879346924E-01  5.2199211446329E-01
93  9.2000000000000E-01  2.5965451699092E-02 -1.3404433120585E-01  4.1258669969338E-01
94  9.3000000000000E-01  2.1654853112686E-02 -1.0945533193381E-01  3.1495461583955E-01
95  9.4000000000000E-01  1.7048880036886E-02 -8.5125284958879E-02  2.3014745420316E-01
96  9.5000000000000E-01  1.2625691338657E-02 -6.2513746720963E-02  1.5879568472801E-01
97  9.6000000000000E-01  8.4035701975405E-03 -4.1710560991410E-02  1.0103306964393E-01
98  9.7000000000000E-01  4.5728031791193E-03 -2.3420421130343E-02  5.6687173023962E-02
99  9.8000000000000E-01  1.8087313533209E-03 -9.9533758788221E-03  2.5439380619531E-02
100  9.9000000000000E-01  3.6104611458883E-04 -2.3153154220324E-03  6.7401793629661E-03
101  1.0000000000000E+00  2.3764266187055E-06 -2.4830443851924E-05  9.6384500515657E-05
102  1.0100000000000E+00  9.4230730690307E-07 -8.3263377873786E-06  2.9589343436891E-05
103  1.0200000000000E+00  3.1414055412614E-11 -2.4558156881882E-10 -3.0811767198673E-10
104  1.03  0.  0.  0.
105  1.04  0.  0.  0.
106  1.05  0.  0.  0.
107  1.06  0.  0.  0.
108  1.07  0.  0.  0.
109  1.08  0.  0.  0.
110  1.09  0.  0.  0.
111  1.10  0.  0.  0.
112  1.11  0.  0.  0.
113  1.12  0.  0.  0.
114  1.13  0.  0.  0.
115  1.14  0.  0.  0.
116  1.15  0.  0.  0.
117  1.16  0.  0.  0.
118  1.17  0.  0.  0.
119  1.18  0.  0.  0.
120  1.19  0.  0.  0.
121  1.20  0.  0.  0.
122  1.21  0.  0.  0.
123  1.22  0.  0.  0.
124  1.23  0.  0.  0.
125  1.24  0.  0.  0.
126  1.25  0.  0.  0.
127  1.26  0.  0.  0.
128  1.27  0.  0.  0.
129  1.28  0.  0.  0.
130  1.29  0.  0.  0.
131  1.30  0.  0.  0.
132  1.31  0.  0.  0.
133  1.32  0.  0.  0.
134  1.33  0.  0.  0.
135  1.34  0.  0.  0.
136  1.35  0.  0.  0.
137  1.36  0.  0.  0.
138  1.37  0.  0.  0.
139  1.38  0.  0.  0.
140  1.39  0.  0.  0.
141  1.40  0.  0.  0.
142  1.41  0.  0.  0.
143  1.42  0.  0.  0.
144  1.43  0.  0.  0.
145  1.44  0.  0.  0.
146  1.45  0.  0.  0.
147  1.46  0.  0.  0.
148  1.47  0.  0.  0.
149  1.48  0.  0.  0.
150  1.49  0.  0.  0.
151  1.50  0.  0.  0.
152  1.51  0.  0.  0.
153  1.52  0.  0.  0.
154  1.53  0.  0.  0.
155  1.54  0.  0.  0.
156  1.55  0.  0.  0.
157  1.56  0.  0.  0.
158  1.57  0.  0.  0.
159  1.58  0.  0.  0.
160  1.59  0.  0.  0.
161  1.60  0.  0.  0.
162  1.61  0.  0.  0.
163  1.62  0.  0.  0.
164  1.63  0.  0.  0.
165  1.64  0.  0.  0.
166  1.65  0.  0.  0.
167  1.66  0.  0.  0.
168  1.67  0.  0.  0.
169  1.68  0.  0.  0.
170  1.69  0.  0.  0.
171  1.70  0.  0.  0.
172  1.71  0.  0.  0.
173  1.72  0.  0.  0.
174  1.73  0.  0.  0.
175  1.74  0.  0.  0.
176  1.75  0.  0.  0.
177  1.76  0.  0.  0.
178  1.77  0.  0.  0.
179  1.78  0.  0.  0.
180  1.79  0.  0.  0.
181  1.80  0.  0.  0.
182  1.81  0.  0.  0.
183  1.82  0.  0.  0.
184  1.83  0.  0.  0.
185  1.84  0.  0.  0.
186  1.85  0.  0.  0.
187  1.86  0.  0.  0.
188  1.87  0.  0.  0.
189  1.88  0.  0.  0.
190  1.89  0.  0.  0.
191  1.90  0.  0.  0.
192  1.91  0.  0.  0.
193  1.92  0.  0.  0.
194  1.93  0.  0.  0.
195  1.94  0.  0.  0.
196  1.95  0.  0.  0.
197  1.96  0.  0.  0.
198  1.97  0.  0.  0.
199  1.98  0.  0.  0.
200  1.99  0.  0.  0.
201  2.00  0.  0.  0.
202  2.01  0.  0.  0.
203  2.02  0.  0.  0.
204  2.03  0.  0.  0.
205  2.04  0.  0.  0.
206  2.05  0.  0.  0.
207  2.06  0.  0.  0.
208  2.07  0.  0.  0.
209  2.08  0.  0.  0.
210  2.09  0.  0.  0.
211  2.10  0.  0.  0.
212  2.11  0.  0.  0.
213  2.12  0.  0.  0.
214  2.13  0.  0.  0.
215  2.14  0.  0.  0.
216  2.15  0.  0.  0.
217  2.16  0.  0.  0.
218  2.17  0.  0.  0.
219  2.18  0.  0.  0.
220  2.19  0.  0.  0.
221  2.20  0.  0.  0.
222  2.21  0.  0.  0.
223  2.22  0.  0.  0.
224  2.23  0.  0.  0.
225  2.24  0.  0.  0.
226  2.25  0.  0.  0.
227  2.26  0.  0.  0.
228  2.27  0.  0.  0.
229  2.28  0.  0.  0.
230  2.29  0.  0.  0.
231  2.30  0.  0.  0.
232  2.31  0.  0.  0.
233  2.32  0.  0.  0.
234  2.33  0.  0.  0.
235  2.34  0.  0.  0.
236  2.35  0.  0.  0.
237  2.36  0.  0.  0.
238  2.37  0.  0.  0.
239  2.38  0.  0.  0.
240  2.39  0.  0.  0.
241  2.40  0.  0.  0.
242  2.41  0.  0.  0.
243  2.42  0.  0.  0.
244  2.43  0.  0.  0.
245  2.44  0.  0.  0.
246  2.45  0.  0.  0.
247  2.46  0.  0.  0.
248  2.47  0.  0.  0.
249  2.48  0.  0.  0.
250  2.49  0.  0.  0.
251  2.50  0.  0.  0.
252  2.51  0.  0.  0.
253  2.52  0.  0.  0.
254  2.53  0.  0.  0.
255  2.54  0.  0.  0.
256  2.55  0.  0.  0.
257  2.56  0.  0.  0.
258  2.57  0.  0.  0.
259  2.58  0.  0.  0.
260  2.59  0.  0.  0.
261  2.60  0.  0.  0.
262  2.61  0.  0.  0.
263  2.62  0.  0.  0.
264  2.63  0.  0.  0.
265  2.64  0.  0.  0.
266  2.65  0.  0.  0.
267  2.66  0.  0.  0.
268  2.67  0.  0.  0.
269  2.68  0.  0.  0.
270  2.69  0.  0.  0.
271  2.70  0.  0.  0.
272  2.71  0.  0.  0.
273  2.72  0.  0.  0.
274  2.73  0.  0.  0.
275  2.74  0.  0.  0.
276  2.75  0.  0.  0.
277  2.76  0.  0.  0.
278  2.77  0.  0.  0.
279  2.78  0.  0.  0.
280  2.79  0.  0.  0.
281  2.80  0.  0.  0.
282  2.81  0.  0.  0.
283  2.82  0.  0.  0.
284  2.83  0.  0.  0.
285  2.84  0.  0.  0.
286  2.85  0.  0.  0.
287  2.86  0.  0.  0.
288  2.87  0.  0.  0.
289  2.88  0.  0.  0.
290  2.89  0.  0.  0.
291  2.90  0.  0.  0.
292  2.91  0.  0.  0.
293  2.92  0.  0.  0.
294  2.93  0.  0.  0.
295  2.94  0.  0.  0.
296  2.95  0.  0.  0.
297  2.96  0.  0.  0.
298  2.97  0.  0.  0.
299  2.98  0.  0.  0.
300  2.99  0.  0.  0.
301  3.00  0.  0.  0.
302  3.01  0.  0.  0.
303  3.02  0.  0.  0.
304  3.03  0.  0.  0.
305  3.04  0.  0.  0.
306  3.05  0.  0.  0.
307  3.06  0.  0.  0.
308  3.07  0.  0.  0.
309  3.08  0.  0.  0.
310  3.09  0.  0.  0.
311  3.10  0.  0.  0.
312  3.11  0.  0.  0.
313  3.12  0.  0.  0.
314  3.13  0.  0.  0.
315  3.14  0.  0.  0.
316  3.15  0.  0.  0.
317  3.16  0.  0.  0.
318  3.17  0.  0.  0.
319  3.18  0.  0.  0.
320  3.19  0.  0.  0.
321  3.20  0.  0.  0.
322  3.21  0.  0.  0.
323  3.22  0.  0.  0.
324  3.23  0.  0.  0.
325  3.24  0.  0.  0.
326  3.25  0.  0.  0.
327  3.26  0.  0.  0.
328  3.27  0.  0.  0.
329  3.28  0.  0.  0.
330  3.29  0.  0.  0.
331  3.30  0.  0.  0.
332  3.31  0.  0.  0.
333  3.32  0.  0.  0.
334  3.33  0.  0.  0.
335  3.34  0.  0.  0.
336  3.35  0.  0.  0.
337  3.36  0.  0.  0.
338  3.37  0.  0.  0.
339  3.38  0.  0.  0.
340  3.39  0.  0.  0.
341  3.40  0.  0.  0.
342  3.41  0.  0.  0.
343  3.42  0.  0.  0.
344  3.43  0.  0.  0.
345  3.44  0.  0.  0.
346  3.45  0.  0.  0.
347  3.46  0.  0.  0.
348  3.47  0.  0.  0.
349  3.48  0.  0.  0.
350  3.49  0.  0.  0.
351  3.50  0.  0.  0.
352  3.51  0.  0.  0.
353  3.52  0.  0.  0.
354  3.53  0.  0.  0.
355  3.54  0.  0.  0.
356  3.55  0.  0.  0.
357  3.56  0.  0.  0.
358  3.57  0.  0.  0.
359  3.58  0.  0.  0.
360  3.59  0.  0.  0.
361  3.60  0.  0.  0.
362  3.61  0.  0.  0.
363  3.62  0.  0.  0.
364  3.63  0.  0.  0.
365  3.64  0.  0.  0.
366  3.65  0.  0.  0.
367  3.66  0.  0.  0.
368  3.67  0.  0.  0.
369  3.68  0.  0.  0.
370  3.69  0.  0.  0.
371  3.70  0.  0.  0.
372  3.71  0.  0.  0.
373  3.72  0.  0.  0.
374  3.73  0.  0.  0.
375  3.74  0.  0.  0.
376  3.75  0.  0.  0.
377  3.76  0.  0.  0.
378  3.77  0.  0.  0.
379  3.78  0.  0.  0.
380  3.79  0.  0.  0.
381  3.80  0.  0.  0.
382  3.81  0.  0.  0.
383  3.82  0.  0.  0.
384  3.83  0.  0.  0.
385  3.84  0.  0.  0.
386  3.85  0.  0.  0.
387  3.86  0.  0.  0.
388  3.87  0.  0.  0.
389  3.88  0.  0.  0.
390  3.89  0.  0.  0.
391  3.90  0.  0.  0.
392  3.91  0.  0.  0.
393  3.92  0.  0.  0.
394  3.93  0.  0.  0.
395  3.94  0.  0.  0.
396  3.95  0.  0.  0.
397  3.96  0.  0.  0.
398  3.97  0.  0.  0.
399  3.98  0.  0.  0.
400  3.99  0.  0.  0.
401  4.00  0.  0.  0.
402  4.01  0.  0.  0.
403  4.02  0.  0.  0.
404  4.03  0.  0.  0.
405  4.04  0.  0.  0.
406  4.05  0.  0.  0.
407  4.06  0.  0.  0.
408  4.07  0.  0.  0.
409  4.08  0.  0.  0.
410  4.09  0.  0.  0.
411  4.10  0.  0.  0.
412  4.11  0.  0.  0.
413  4.12  0.  0.  0.
414  4.13  0.  0.  0.
415  4.14  0.  0.  0.
416  4.15  0.  0.  0.
417  4.16  0.  0.  0.
418  4.17  0.  0.  0.
419  4.18  0.  0.  0.
420  4.19  0.  0.  0.
421  4.20  0.  0.  0.
422  4.21  0.  0.  0.
423  4.22  0.  0.  0.
424  4.23  0.  0.  0.
425  4.24  0.  0.  0.
426  4.25  0.  0.  0.
427  4.26  0.  0.  0.
428  4.27  0.  0.  0.
429  4.28  0.  0.  0.
430  4.29  0.  0.  0.
431  4.30  0.  0.  0.
432  4.31  0.  0.  0.
433  4.32  0.  0.  0.
434  4.33  0.  0.  0.
435  4.34  0.  0.  0.
436  4.35  0.  0.  0.
437  4.36  0.  0.  0.
438  4.37  0.  0.  0.
439  4.38  0.  0.  0.
440  4.39  0.  0.  0.
441  4.40  0.  0.  0.
442  4.41  0.  0.  0.
443  4.42  0.  0.  0.
444  4.43  0.  0.  0.
445  4.44  0.  0.  0.
446  4.45  0.  0.  0.
447  4.46  0.  0.  0.
448  4.47  0.  0.  0.
449  4.48  0.  0.  0.
450  4.49  0.  0.  0.
451  4.50  0.  0.  0.
452  4.51  0.  0.  0.
453  4.52  0.  0.  0.
454  4.53  0.  0.  0.
455  4.54  0.  0.  0.
456  4.55  0.  0.  0.
457  4.56  0.  0.  0.
458  4.57  0.  0.  0.
459  4.58  0.  0.  0.
460  4.59  0.  0.  0.
461  4.60  0.  0.  0.
462  4.61  0.  0.  0.
463  4.62  0.  0.  0.
464  4.63  0.  0.  0.
465  4.64  0.  0.  0.
466  4.65  0.  0.  0.
467  4.66  0.  0.  0.
468  4.67  0.  0.  0.
469  4.68  0.  0.  0.
470  4.69  0.  0.  0.
471  4.70  0.  0.  0.
472  4.71  0.  0.  0.
473  4.72  0.  0.  0.
474  4.73  0.  0.  0.
475  4.74  0.  0.  0.
476  4.75  0.  0.  0.
477  4.76  0.  0.  0.
478  4.77  0.  0.  0.
479  4.78  0.  0.  0.
480  4.79  0.  0.  0.
481  4.80  0.  0.  0.
482  4.81  0.  0.  0.
483  4.82  0.  0.  0.
484  4.83  0.  0.  0.
485  4.84  0.  0.  0.
486  4.85  0.  0.  0.
487  4.86  0.  0.  0.
488  4.87  0.  0.  0.
489  4.88  0.  0.  0.
490  4.89  0.  0.  0.
491  4.90  0.  0.  0.
492  4.91  0.  0.  0.
493  4.92  0.  0.  0.
494  4.93  0.  0.  0.
495  4.94  0.  0.  0.
496  4.95  0.  0.  0.
497  4.96  0.  0.  0.
498  4.97  0.  0.  0.
499  4.98  0.  0.  0.
500  4.99  0.  0.  0.
501  5.00  0.  0.  0.
502  5.01  0.  0.  0.
503  5.02  0.  0.  0.
504  5.03  0.  0.  0.
505  5.04  0.  0.  0.
506  5.05  0.  0.  0.
507  5.06  0.  0.  0.
508  5.07  0.  0.  0.
509  5.08  0.  0.  0.
510  5.09  0.  0.  0.
511  5.10  0.  0.  0.
512  5.11  0.  0.  0.
513  5.12  0.  0.  0.
514  5.13  0.  0.  0.
515  5.14  0.  0.  0.
516  5.15  0.  0.  0.
517  5.16  0.  0.  0.
518  5.17  0.  0.  0.
519  5.18  0.  0.  0.
520  5.19  0.  0.  0.
521  5.20  0.  0.  0.
522  5.21  0.  0.  0.
523  5.22  0.  0.  0.
524  5.23  0.  0.  0.
525  5.24  0.  0.  0.
526  5.25  0.  0.  0.
527  5.26  0.  0.  0.
528  5.27  0.  0.  0.
529  5.28  0.  0.  0.
530  5.29  0.  0.  0.
531  5.30  0.  0.  0.
532  5.31  0.  0.  0.
533  5.32  0.  0.  0.
534  5.33  0.  0.  0.
535  5.34  0.  0.  0.
536  5.35  0.  0.  0.
537  5.36  0.  0.  0.
538  5.37  0.  0.  0.
539  5.38  0.  0.  0.
540  5.39  0.  0.  0.
541  5.40  0.  0.  0.
542  5.41  0.  0.  0.
543  5.42  0.  0.  0.
544  5.43  0.  0.  0.
545  5.44  0.  0.  0.
546  5.45  0.  0.  0.
547  5.46  0.  0.  0.
548  5.47  0.  0.  0.
549  5.48  0.  0.  0.
550  5.49  0.  0.  0.
551  5.50  0.  0.  0.
552  5.51  0.  0.  0.
553  5.52  0.  0.  0.
554  5.53  0.  0.  0.
555  5.54  0.  0.  0.
556  5.55  0.  0.  0.
557  5.56  0.  0.  0.
558  5.57  0.  0.  0.
559  5.58  0.  0.  0.
560  5.59  0.  0.  0.
561  5.60  0.  0.  0.
562  5.61  0.  0.  0.
563  5.62  0.  0.  0.
564  5.63  0.  0.  0.
565  5.64  0.  0.  0.
566  5.65  0.  0.  0.
567  5.66  0.  0.  0.
568  5.67  0.  0.  0.
569  5.68  0.  0.  0.
570  5.69  0.  0.  0.
571  5.70  0.  0.  0.
572  5.71  0.  0.  0.
573  5.72  0.  0.  0.
574  5.73  0.  0.  0.
575  5.74  0.  0.  0.
576  5.75  0.  0.  0.
577  5.76  0.  0.  0.
578  5.77  0.  0.  0.
579  5.78  0.  0.  0.
580  5.79  0.  0.  0.
581  5.80  0.  0.  0.
582  5.81  0.  0.  0.
583  5.82  0.  0.  0.
584  5.83  0.  0.  0.
585  5.84  0.  0.  0.
586  5.85  0.  0.  0.
587  5.86  0.  0.  0.
588  5.87  0.  0.  0.
589  5.88  0.  0.  0.
590  5.89  0.  0.  0.
591  5.90  0.  0.  0.
592  5.91  0.  0.  0.
593  5.92  0.  0.  0.
594  5.93  0.  0.  0.
595  5.94  0.  0.  0.
596  5.95  0.  0.  0.
597  5.96  0.  0.  0.
598  5.97  0.  0.  0.
599  5.98  0.  0.  0.
600  5.99  0.  0.  0.
1                         1.5533596918247E+01 -2.9739986503604E+00
1  0.0000000000000E+00  3.4525685227438E-08  3.8632203824829E-07
2  1.0000000000000E-02  3.8272529926350E-03 -3.4517998190243E-03
3  2.0000000000000E-02  1.5273039479982E-02 -1.3839906887343E-02
4  3.0000000000000E-02  3.4230119113485E-02 -3.1257200018857E-02
5  4.0000000000000E-02  6.0521987157709E-02 -5.5841317331204E-02
6  5.0000000000000E-02  9.3906122032179E-02 -8.7750020032508E-02
7  6.0000000000000E-02  1.3407834444840E-01 -1.2712884896263E-01
8  7.0000000000000E-02  1.8067811219992E-01 -1.7407308408642E-01
9  8.0000000000000E-02  2.3329454013752E-01 -2.2858640345863E-01
10  9.0000000000000E-02  2.9147291103129E-01 -2.9053889664969E-01
11  1.0000000000000E-01  3.5472143109478E-01 -3.5962720364889E-01
12  1.1000000000000E-01  4.2251798452430E-01 -4.3533951648090E-01
13  1.2000000000000E-01  4.9431665444618E-01 -5.1692799743739E-01
14  1.3000000000000E-01  5.6955380248068E-01 -6.0339084285096E-01
15  1.4000000000000E-01  6.4765353442504E-01 -6.9346576994069E-01
16  1.5000000000000E-01  7.2803242348016E-01 -7.8563614825023E-01
17  1.6000000000000E-01  8.1010341268612E-01 -8.7815036393816E-01
18  1.7000000000000E-01  8.9327887213304E-01 -9.6905432625418E-01
19  1.8000000000000E-01  9.7697284120450E-01 -1.0562363352000E+00
20  1.9000000000000E-01  1.0606025386476E+00 -1.1374828628780E+00
21  2.0000000000000E-01  1.1435892707835E+00 -1.2105431928458E+00
22  2.1000000000000E-01  1.2253589080385E+00 -1.2732003438881E+00
23  2.2000000000000E-01  1.3053421299133E+00 -1.3233453048169E+00
24  2.3000000000000E-01  1.3829746567316E+00 -1.3590513474750E+00
25  2.4000000000000E-01  1.4576976918141E+00 -1.3786450815362E+00
26  2.5000000000000E-01  1.5289587895571E+00 -1.3807709748464E+00
27  2.6000000000000E-01  1.5962133434104E+00 -1.3644462867021E+00
28  2.7000000000000E-01  1.6589268537745E+00 -1.3291037401626E+00
29  2.8000000000000E-01  1.7165780909022E+00 -1.2746197769055E+00
30  2.9000000000000E-01  1.7686632140924E+00 -1.2013268707147E+00
31  3.0000000000000E-01  1.8147008484409E+00 -1.1100090937777E+00
32  3.1000000000000E-01  1.8542380571716E+00 -1.0018808991674E+00
33  3.2000000000000E-01  1.8868570843590E+00 -8.7854986571673E-01
34  3.3000000000000E-01  1.9121826830173E+00 -7.4196490922205E-01
35  3.4000000000000E-01  1.9298897903097E+00 -5.9435215845518E-01
36  3.5000000000000E-01  1.9397112680386E+00 -4.3814129030948E-01
37  3.6000000000000E-01  1.9414453952045E+00 -2.7588558443715E-01
38  3.7000000000000E-01  1.9349627823198E+00 -1.1017926884153E-01
39  3.8000000000000E-01  1.9202123757259E+00  5.6424133662576E-02
40  3.9000000000000E-01  1.8972262350324E+00  2.2148879176461E-01
41  4.0000000000000E-01  1.8661227978197E+00  3.8276544431822E-01
42  4.1000000000000E-01  1.8271083919687E+00  5.3824913039233E-01
43  4.2000000000000E-01  1.7804768156588E+00  6.8622328510319E-01
44  4.3000000000000E-01  1.7266068757588E+00  8.2528840098225E-01
45  4.4000000000000E-01  1.6659578539716E+00  9.5437423717951E-01
46  4.5000000000000E-01  1.5990629531457E+00  1.0727354002157E+00
47  4.6000000000000E-01  1.5265208598027E+00  1.1799309783273E+00
48  4.7000000000000E-01  1.4489856391877E+00  1.2757897431380E+00
49  4.8000000000000E-01  1.3671552521240E+00  1.3603631944711E+00
50  4.9000000000000E-01  1.2817590450138E+00  1.4338693763428E+00
51  5.0000000000000E-01  1.1935446122674E+00  1.4966308991696E+00
52  5.1000000000000E-01  1.1032644616826E+00  1.5490109363027E+00
53  5.2000000000000E-01  1.0116629259963E+00  1.5913511017933E+00
54  5.3000000000000E-01  9.1946375699953E-01  1.6239150499497E+00
55  5.4000000000000E-01  8.2735881219635E-01  1.6468413651299E+00
56  5.5000000000000E-01  7.3599819887408E-01  1.6601088422166E+00
57  5.6000000000000E-01  6.4598217843309E-01  1.6635166144347E+00
58  5.7000000000000E-01  5.5785505756720E-01  1.6566807950965E+00
59  5.8000000000000E-01  4.7210120576689E-01  1.6390484011507E+00
60  5.9000000000000E-01  3.8914324462466E-01  1.6099283630977E+00
61  6.0000000000000E-01  3.0934235792902E-01  1.5685384462897E+00
62  6.1000000000000E-01  2.3300057712100E-01  1.5140659631941E+00
63  6.2000000000000E-01  1.6036480890574E-01  1.4457392946894E+00
64  6.3000000000000E-01  9.1632294968525E-02  1.3629065076704E+00
65  6.4000000000000E-01  2.6957131684443E-02  1.2651167975017E+00
66  6.5000000000000E-01 -3.3542566379325E-02  1.1522001308429E+00
67  6.6000000000000E-01 -8.9777299127889E-02  1.0243403412576E+00
68  6.7000000000000E-01 -1.4167905174479E-01  8.8213705003640E-01
69  6.8000000000000E-01 -1.8919482552159E-01  7.2665214918172E-01
70  6.9000000000000E-01 -2.3228120908849E-01  5.5943718178979E-01
71  7.0000000000000E-01 -2.7090030927770E-01  3.8253876429324E-01
72  7.1000000000000E-01 -3.0501728279992E-01  1.9848018159405E-01
73  7.2000000000000E-01 -3.3459961859162E-01  1.0218406388726E-02
74  7.3000000000000E-01 -3.5961822040975E-01 -1.7892300302645E-01
75  7.4000000000000E-01 -3.8005023485493E-01 -3.6534344314373E-01
76  7.5000000000000E-01 -3.9588346662159E-01 -5.4527436485398E-01
77  7.6000000000000E-01 -4.0712212555284E-01 -7.1490395023065E-01
78  7.7000000000000E-01 -4.1379356400046E-01 -8.7051243067623E-01
79  7.8000000000000E-01 -4.1595559256520E-01 -1.0086123569691E+00
80  7.9000000000000E-01 -4.1370391138912E-01 -1.1260876211414E+00
81  8.0000000000000E-01 -4.0717916579927E-01 -1.2203247951712E+00
82  8.1000000000000E-01 -3.9657313128569E-01 -1.2893304130051E+00
83  8.2000000000000E-01 -3.8213355444916E-01 -1.3318281881485E+00
84  8.3000000000000E-01 -3.6416722345210E-01 -1.3473308232784E+00
85  8.4000000000000E-01 -3.4304091227447E-01 -1.3361820119048E+00
86  8.5000000000000E-01 -3.1917993526237E-01 -1.2995654233298E+00
87  8.6000000000000E-01 -2.9306415862933E-01 -1.2394788580414E+00
88  8.7000000000000E-01 -2.6522143948433E-01 -1.1586733089086E+00
89  8.8000000000000E-01 -2.3621859574814E-01 -1.0605583047648E+00
90  8.9000000000000E-01 -2.0665014671502E-01 -9.4907658348450E-01
91  9.0000000000000E-01 -1.7712519859716E-01 -8.2855277628791E-01
92  9.1000000000000E-01 -1.4825297682505E-01 -7.0352232007739E-01
93  9.2000000000000E-01 -1.2062762217372E-01 -5.7854819077358E-01
94  9.3000000000000E-01 -9.4812966511481E-02 -4.5803421565969E-01
95  9.4000000000000E-01 -7.1328068518748E-02 -3.4604418327089E-01
96  9.5000000000000E-01 -5.0634451169128E-02 -2.4613964527885E-01
97  9.6000000000000E-01 -3.3111111056834E-02 -1.6082951668184E-01
98  9.7000000000000E-01 -1.9067330458186E-02 -9.2125370380352E-02
99  9.8000000000000E-01 -8.7606256727040E-03 -4.1926397080366E-02
100  9.9000000000000E-01 -2.3672183620290E-03 -1.1178521983427E-02
101  1.0000000000000E+00 -3.4303810646363E-05 -1.5913881199307E-04
102  1.0100000000000E+00 -1.0554372814396E-05 -4.9111186711404E-05
103  1.0200000000000E+00 -3.8115342059447E-11 -1.3346315958524E-11
104  1.03  0.  0.
105  1.04  0.  0.
106  1.05  0.  0.
107  1.06  0.  0.
108  1.07  0.  0.
109  1.08  0.  0.
110  1.09  0.  0.
111  1.10  0.  0.
112  1.11  0.  0.
113  1.12  0.  0.
114  1.13  0.  0.
115  1.14  0.  0.
116  1.15  0.  0.
117  1.16  0.  0.
118  1.17  0.  0.
119  1.18  0.  0.
120  1.19  0.  0.
121  1.20  0.  0.
122  1.21  0.  0.
123  1.22  0.  0.
124  1.23  0.  0.
125  1.24  0.  0.
126  1.25  0.  0.
127  1.26  0.  0.
128  1.27  0.  0.
129  1.28  0.  0.
130  1.29  0.  0.
131  1.30  0.  0.
132  1.31  0.  0.
133  1.32  0.  0.
134  1.33  0.  0.
135  1.34  0.  0.
136  1.35  0.  0.
137  1.36  0.  0.
138  1.37  0.  0.
139  1.38  0.  0.
140  1.39  0.  0.
141  1.40  0.  0.
142  1.41  0.  0.
143  1.42  0.  0.
144  1.43  0.  0.
145  1.44  0.  0.
146  1.45  0.  0.
147  1.46  0.  0.
148  1.47  0.  0.
149  1.48  0.  0.
150  1.49  0.  0.
151  1.50  0.  0.
152  1.51  0.  0.
153  1.52  0.  0.
154  1.53  0.  0.
155  1.54  0.  0.
156  1.55  0.  0.
157  1.56  0.  0.
158  1.57  0.  0.
159  1.58  0.  0.
160  1.59  0.  0.
161  1.60  0.  0.
162  1.61  0.  0.
163  1.62  0.  0.
164  1.63  0.  0.
165  1.64  0.  0.
166  1.65  0.  0.
167  1.66  0.  0.
168  1.67  0.  0.
169  1.68  0.  0.
170  1.69  0.  0.
171  1.70  0.  0.
172  1.71  0.  0.
173  1.72  0.  0.
174  1.73  0.  0.
175  1.74  0.  0.
176  1.75  0.  0.
177  1.76  0.  0.
178  1.77  0.  0.
179  1.78  0.  0.
180  1.79  0.  0.
181  1.80  0.  0.
182  1.81  0.  0.
183  1.82  0.  0.
184  1.83  0.  0.
185  1.84  0.  0.
186  1.85  0.  0.
187  1.86  0.  0.
188  1.87  0.  0.
189  1.88  0.  0.
190  1.89  0.  0.
191  1.90  0.  0.
192  1.91  0.  0.
193  1.92  0.  0.
194  1.93  0.  0.
195  1.94  0.  0.
196  1.95  0.  0.
197  1.96  0.  0.
198  1.97  0.  0.
199  1.98  0.  0.
200  1.99  0.  0.
201  2.00  0.  0.
202  2.01  0.  0.
203  2.02  0.  0.
204  2.03  0.  0.
205  2.04  0.  0.
206  2.05  0.  0.
207  2.06  0.  0.
208  2.07  0.  0.
209  2.08  0.  0.
210  2.09  0.  0.
211  2.10  0.  0.
212  2.11  0.  0.
213  2.12  0.  0.
214  2.13  0.  0.
215  2.14  0.  0.
216  2.15  0.  0.
217  2.16  0.  0.
218  2.17  0.  0.
219  2.18  0.  0.
220  2.19  0.  0.
221  2.20  0.  0.
222  2.21  0.  0.
223  2.22  0.  0.
224  2.23  0.  0.
225  2.24  0.  0.
226  2.25  0.  0.
227  2.26  0.  0.
228  2.27  0.  0.
229  2.28  0.  0.
230  2.29  0.  0.
231  2.30  0.  0.
232  2.31  0.  0.
233  2.32  0.  0.
234  2.33  0.  0.
235  2.34  0.  0.
236  2.35  0.  0.
237  2.36  0.  0.
238  2.37  0.  0.
239  2.38  0.  0.
240  2.39  0.  0.
241  2.40  0.  0.
242  2.41  0.  0.
243  2.42  0.  0.
244  2.43  0.  0.
245  2.44  0.  0.
246  2.45  0.  0.
247  2.46  0.  0.
248  2.47  0.  0.
249  2.48  0.  0.
250  2.49  0.  0.
251  2.50  0.  0.
252  2.51  0.  0.
253  2.52  0.  0.
254  2.53  0.  0.
255  2.54  0.  0.
256  2.55  0.  0.
257  2.56  0.  0.
258  2.57  0.  0.
259  2.58  0.  0.
260  2.59  0.  0.
261  2.60  0.  0.