Am    ONCVPSP-4.0.1  r_core=   1.10131   1.00079   1.00079   1.10131
     95.0000     35.0000      230825    zatom,zion,pspd
     8      11   3     4   600     0    pspcod,pspxc,lmax,lloc,mmax,r2well
  5.99000000  3.50000000  0.00000000    rchrg fchrg qchrg
     3     3     3     2    nproj
     3     1           extension_switch
     3     4     4    nprojso
   0                         4.9338418075584E+01  3.7999999954512E+00 -2.9394912931532E-01
     1  0.0000000000000E+00 -5.8773327538120E-08  2.4468659021171E-07  3.2636109079109E-07
     2  1.0000000000000E-02  1.5344968329906E-01 -7.8242142954699E-02  7.3318895505824E-03
     3  2.0000000000000E-02  3.0594655501216E-01 -1.5500423067315E-01  1.5503269678963E-02
     4  3.0000000000000E-02  4.5654960379139E-01 -2.2884396075757E-01  2.5306760185147E-02
     5  4.0000000000000E-02  6.0434105154456E-01 -2.9839302469890E-01  3.7443352680958E-02
     6  5.0000000000000E-02  7.4843706858105E-01 -3.6239039416547E-01  5.2481788820714E-02
     7  6.0000000000000E-02  8.8799745260169E-01 -4.1971134404506E-01  7.0823918160375E-02
     8  7.0000000000000E-02  1.0222339999053E+00 -4.6939109777369E-01  9.2677621790785E-02
     9  8.0000000000000E-02  1.1504173559581E+00 -5.1064222517095E-01  1.1803856152958E-01
    10  9.0000000000000E-02  1.2718822006144E+00 -5.4286520714868E-01  1.4668163356891E-01
    11  1.0000000000000E-01  1.3860306976028E+00 -5.6565189225550E-01  1.7816258636707E-01
    12  1.1000000000000E-01  1.4923342149123E+00 -5.7878189279121E-01  2.1182982321066E-01
    13  1.2000000000000E-01  1.5903333987988E+00 -5.8221228830869E-01  2.4684596909085E-01
    14  1.3000000000000E-01  1.6796367556880E+00 -5.7606130692382E-01  2.8221835823100E-01
    15  1.4000000000000E-01  1.7599179598684E+00 -5.6058692593460E-01  3.1683721091848E-01
    16  1.5000000000000E-01  1.8309121574870E+00 -5.3616156012051E-01  3.4951993288579E-01
    17  1.6000000000000E-01  1.8924115764346E+00 -5.0324417808633E-01  3.7905970170605E-01
    18  1.7000000000000E-01  1.9442607752779E+00 -4.6235129585874E-01  4.0427631408814E-01
    19  1.8000000000000E-01  1.9863518712461E+00 -4.1402833727811E-01  4.2406716371920E-01
    20  1.9000000000000E-01  2.0186200769463E+00 -3.5882282027608E-01  4.3745620587761E-01
    21  2.0000000000000E-01  2.0410398483131E+00 -2.9726072785017E-01  4.4363884299659E-01
    22  2.1000000000000E-01  2.0536219034491E+00 -2.2982725666406E-01  4.4202083127849E-01
    23  2.2000000000000E-01  2.0564113153638E+00 -1.5695291193726E-01  4.3224955520799E-01
    24  2.3000000000000E-01  2.0494868137560E+00 -7.9005644673645E-02  4.1423633370068E-01
    25  2.4000000000000E-01  2.0329613550377E+00  3.7105813694234E-03  3.8816879498102E-01
    26  2.5000000000000E-01  2.0069839393217E+00  9.0950736113982E-02  3.5451277097500E-01
    27  2.6000000000000E-01  1.9717425719330E+00  1.8251746331244E-01  3.1400359817894E-01
    28  2.7000000000000E-01  1.9274681890701E+00  2.7824422277277E-01  2.6762715180691E-01
    29  2.8000000000000E-01  1.8744392963894E+00  3.7797374637596E-01  2.1659136454034E-01
    30  2.9000000000000E-01  1.8129870090906E+00  4.8153298372809E-01  1.6228937215440E-01
    31  3.0000000000000E-01  1.7435001357041E+00  5.8870592519560E-01  1.0625576887471E-01
    32  3.1000000000000E-01  1.6664299177939E+00  6.9920583900836E-01  5.0117730938058E-02
    33  3.2000000000000E-01  1.5822940260588E+00  8.1264853710516E-01 -4.4570341833053E-03
    34  3.3000000000000E-01  1.4916794209052E+00  9.2852828657145E-01 -5.5813441422155E-02
    35  3.4000000000000E-01  1.3952437126711E+00  1.0461979084245E+00 -1.0236118868472E-01
    36  3.5000000000000E-01  1.2937147026014E+00  1.1648544552083E+00 -1.4262389410217E-01
    37  3.6000000000000E-01  1.1878878488518E+00  1.2835316388959E+00 -1.7528333220538E-01
    38  3.7000000000000E-01  1.0786214798202E+00  1.4010998997574E+00 -1.9921712334422E-01
    39  3.8000000000000E-01  9.6682966687237E-01  1.5162746768583E+00 -2.1352853161064E-01
    40  3.9000000000000E-01  8.5347276631064E-01  1.6276330758215E+00 -2.1756738258871E-01
    41  4.0000000000000E-01  7.3954574207924E-01  1.7336387453867E+00 -2.1094150723264E-01
    42  4.1000000000000E-01  6.2606448177767E-01  1.8326743882023E+00 -1.9351853418721E-01
    43  4.2000000000000E-01  5.1405041457755E-01  1.9230809606097E+00 -1.6541827116410E-01
    44  4.3000000000000E-01  4.0451382623907E-01  2.0032022779842E+00 -1.2699631770360E-01
    45  4.4000000000000E-01  2.9843633956524E-01  2.0714334522945E+00 -7.8819918799996E-02
    46  4.5000000000000E-01  1.9675308479881E-01  2.1262713608345E+00 -2.1637385068628E-02
    47  4.6000000000000E-01  1.0033512079477E-01  2.1663651909694E+00  4.3657343687839E-02
    48  4.7000000000000E-01  9.9726822799334E-03  2.1905650333623E+00  1.1606323941490E-01
    49  4.8000000000000E-01 -7.3640179996422E-02  2.1979665102989E+00  1.9451198740789E-01
    50  4.9000000000000E-01 -1.4991903102968E-01  2.1879495272523E+00  2.7790720006325E-01
    51  5.0000000000000E-01 -2.1840007391592E-01  2.1602094218143E+00  3.6516127623570E-01
    52  5.1000000000000E-01 -2.7874835573458E-01  2.1147790477947E+00  4.5522830382869E-01
    53  5.2000000000000E-01 -3.3076284182698E-01  2.0520406634220E+00  5.4713164136362E-01
    54  5.3000000000000E-01 -3.7437814938088E-01  1.9727268777396E+00  6.3998511457977E-01
    55  5.4000000000000E-01 -4.0966284720103E-01  1.8779103326103E+00  7.3300711204733E-01
    56  5.5000000000000E-01 -4.3681434976671E-01  1.7689822414028E+00  8.2552724244182E-01
    57  5.6000000000000E-01 -4.5615055521819E-01  1.6476203506003E+00  9.1698560726918E-01
    58  5.7000000000000E-01 -4.6809849376909E-01  1.5157473181043E+00  1.0069251275316E+00
    59  5.8000000000000E-01 -4.7318036038266E-01  1.3754808934360E+00  1.0949777225301E+00
    60  5.9000000000000E-01 -4.7199739890088E-01  1.2290776232274E+00  1.1808454562299E+00
    61  6.0000000000000E-01 -4.6521218028804E-01  1.0788720754961E+00  1.2642780259483E+00
    62  6.1000000000000E-01 -4.5352987209129E-01  9.2721376617883E-01  1.3450481567997E+00
    63  6.2000000000000E-01 -4.3767912735830E-01  7.7640407266079E-01  1.4229265739243E+00
    64  6.3000000000000E-01 -4.1839322780448E-01  6.2863542679672E-01  1.4976582473547E+00
    65  6.4000000000000E-01 -3.9639209774366E-01  4.8593499342359E-01  1.5689415398216E+00
    66  6.5000000000000E-01 -3.7236576299908E-01  3.5011486294923E-01  1.6364117383505E+00
    67  6.6000000000000E-01 -3.4695976451041E-01  2.2273052549605E-01  1.6996302226556E+00
    68  6.7000000000000E-01 -3.2076295241327E-01  1.0504906018260E-01  1.7580802273541E+00
    69  6.8000000000000E-01 -2.9429798653984E-01 -1.9719196168069E-03  1.8111698043430E+00
    70  6.9000000000000E-01 -2.6801475778604E-01 -9.7693959293468E-02  1.8582422024660E+00
    71  7.0000000000000E-01 -2.4228682628215E-01 -1.8179594777724E-01  1.8985934718496E+00
    72  7.1000000000000E-01 -2.1741085168894E-01 -2.5426111174152E-01  1.9314966890837E+00
    73  7.2000000000000E-01 -1.9360887319202E-01 -3.1535358678285E-01  1.9562318061357E+00
    74  7.3000000000000E-01 -1.7103318662394E-01 -3.6558575019907E-01  1.9721197691189E+00
    75  7.4000000000000E-01 -1.4977346800278E-01 -4.0567786725931E-01  1.9785592500537E+00
    76  7.5000000000000E-01 -1.2986571044111E-01 -4.3651190561081E-01  1.9750641005488E+00
    77  7.6000000000000E-01 -1.1130247793957E-01 -4.5908159882824E-01  1.9612994831175E+00
    78  7.7000000000000E-01 -9.4043937296635E-02 -4.7444098145698E-01  1.9371145725830E+00
    79  7.8000000000000E-01 -7.8029109594824E-02 -4.8365366917660E-01  1.9025697521424E+00
    80  7.9000000000000E-01 -6.3186785895860E-02 -4.8774511747854E-01  1.8579563579410E+00
    81  8.0000000000000E-01 -4.9445577427569E-02 -4.8765996257865E-01  1.8038072507535E+00
    82  8.1000000000000E-01 -3.6742617388240E-02 -4.8422633446124E-01  1.7408968086605E+00
    83  8.2000000000000E-01 -2.5030497532503E-02 -4.7812874201908E-01  1.6702293327951E+00
    84  8.3000000000000E-01 -1.4282105395295E-02 -4.6989077437906E-01  1.5930153296165E+00
    85  8.4000000000000E-01 -4.4931244621182E-03 -4.5986845220346E-01  1.5106356667543E+00
    86  8.5000000000000E-01  4.3179332591102E-03 -4.4825461017633E-01  1.4245941837532E+00
    87  8.6000000000000E-01  1.2112177925076E-02 -4.3509420871625E-01  1.3364599631488E+00
    88  8.7000000000000E-01  1.8835171521078E-02 -4.2030996975421E-01  1.2478011216335E+00
    89  8.8000000000000E-01  2.4423909360595E-02 -4.0373721657747E-01  1.1601126584156E+00
    90  8.9000000000000E-01  2.8815601906801E-02 -3.8516627673202E-01  1.0747415942054E+00
    91  9.0000000000000E-01  3.1957780019756E-02 -3.6439028167968E-01  9.9281334937727E-01
    92  9.1000000000000E-01  3.3819119765748E-02 -3.4125566493734E-01  9.1516404809753E-01
    93  9.2000000000000E-01  3.4400252632450E-02 -3.1571211478993E-01  8.4228420579205E-01
    94  9.3000000000000E-01  3.3743690371822E-02 -2.8785816638146E-01  7.7428007473701E-01
    95  9.4000000000000E-01  3.1941846478313E-02 -2.5797800410266E-01  7.1085980643579E-01
    96  9.5000000000000E-01  2.9141972959440E-02 -2.2656436671831E-01  6.5135256472108E-01
    97  9.6000000000000E-01  2.5546644785191E-02 -1.9432167774320E-01  5.9476982020289E-01
    98  9.7000000000000E-01  2.1408207382979E-02 -1.6214263122704E-01  5.3991930882995E-01
    99  9.8000000000000E-01  1.7015345770357E-02 -1.3105041275170E-01  4.8558358398243E-01
   100  9.9000000000000E-01  1.2669621716423E-02 -1.0209746033843E-01  4.3077685986928E-01
   101  1.0000000000000E+00  8.6495271927330E-03 -7.6210509781485E-02  3.7509482728240E-01
   102  1.0100000000000E+00  5.1627069471126E-03 -5.3986888959200E-02  3.1912151772259E-01
   103  1.0200000000000E+00  2.3391827570855E-03 -3.5693764554551E-02  2.6413615813318E-01
   104  1.0300000000000E+00  2.6245986653484E-04 -2.1440734742686E-02  2.1140171061131E-01
   105  1.0400000000000E+00 -1.0333575330742E-03 -1.1181191593712E-02  1.6209118558167E-01
   106  1.0500000000000E+00 -1.6025053764916E-03 -4.5744915116497E-03  1.1735846623979E-01
   107  1.0600000000000E+00 -1.7702996095473E-03 -3.1981129975445E-04  7.8642505566772E-02
   108  1.0700000000000E+00 -1.5542008741749E-03  1.7312049339336E-03  4.6747447000053E-02
   109  1.0800000000000E+00 -1.0211435022163E-03  1.8658277729273E-03  2.2425525124413E-02
   110  1.0900000000000E+00 -3.8489931352259E-04  8.6850395992655E-04  6.5242619583466E-03
   111  1.1000000000000E+00 -1.3460006705310E-05  3.4316838240685E-05  1.8096131360213E-04
   112  1.1100000000000E+00 -2.2292464566775E-06  5.6072099407196E-06  3.0930225086700E-05
   113  1.1200000000000E+00  2.0469923721464E-07 -4.9302484571260E-07 -3.0996245965532E-06
   114  1.13  0.  0.  0.
   115  1.14  0.  0.  0.
   116  1.15  0.  0.  0.
   117  1.16  0.  0.  0.
   118  1.17  0.  0.  0.
   119  1.18  0.  0.  0.
   120  1.19  0.  0.  0.
   121  1.20  0.  0.  0.
   122  1.21  0.  0.  0.
   123  1.22  0.  0.  0.
   124  1.23  0.  0.  0.
   125  1.24  0.  0.  0.
   126  1.25  0.  0.  0.
   127  1.26  0.  0.  0.
   128  1.27  0.  0.  0.
   129  1.28  0.  0.  0.
   130  1.29  0.  0.  0.
   131  1.30  0.  0.  0.
   132  1.31  0.  0.  0.
   133  1.32  0.  0.  0.
   134  1.33  0.  0.  0.
   135  1.34  0.  0.  0.
   136  1.35  0.  0.  0.
   137  1.36  0.  0.  0.
   138  1.37  0.  0.  0.
   139  1.38  0.  0.  0.
   140  1.39  0.  0.  0.
   141  1.40  0.  0.  0.
   142  1.41  0.  0.  0.
   143  1.42  0.  0.  0.
   144  1.43  0.  0.  0.
   145  1.44  0.  0.  0.
   146  1.45  0.  0.  0.
   147  1.46  0.  0.  0.
   148  1.47  0.  0.  0.
   149  1.48  0.  0.  0.
   150  1.49  0.  0.  0.
   151  1.50  0.  0.  0.
   152  1.51  0.  0.  0.
   153  1.52  0.  0.  0.
   154  1.53  0.  0.  0.
   155  1.54  0.  0.  0.
   156  1.55  0.  0.  0.
   157  1.56  0.  0.  0.
   158  1.57  0.  0.  0.
   159  1.58  0.  0.  0.
   160  1.59  0.  0.  0.
   161  1.60  0.  0.  0.
   162  1.61  0.  0.  0.
   163  1.62  0.  0.  0.
   164  1.63  0.  0.  0.
   165  1.64  0.  0.  0.
   166  1.65  0.  0.  0.
   167  1.66  0.  0.  0.
   168  1.67  0.  0.  0.
   169  1.68  0.  0.  0.
   170  1.69  0.  0.  0.
   171  1.70  0.  0.  0.
   172  1.71  0.  0.  0.
   173  1.72  0.  0.  0.
   174  1.73  0.  0.  0.
   175  1.74  0.  0.  0.
   176  1.75  0.  0.  0.
   177  1.76  0.  0.  0.
   178  1.77  0.  0.  0.
   179  1.78  0.  0.  0.
   180  1.79  0.  0.  0.
   181  1.80  0.  0.  0.
   182  1.81  0.  0.  0.
   183  1.82  0.  0.  0.
   184  1.83  0.  0.  0.
   185  1.84  0.  0.  0.
   186  1.85  0.  0.  0.
   187  1.86  0.  0.  0.
   188  1.87  0.  0.  0.
   189  1.88  0.  0.  0.
   190  1.89  0.  0.  0.
   191  1.90  0.  0.  0.
   192  1.91  0.  0.  0.
   193  1.92  0.  0.  0.
   194  1.93  0.  0.  0.
   195  1.94  0.  0.  0.
   196  1.95  0.  0.  0.
   197  1.96  0.  0.  0.
   198  1.97  0.  0.  0.
   199  1.98  0.  0.  0.
   200  1.99  0.  0.  0.
   201  2.00  0.  0.  0.
   202  2.01  0.  0.  0.
   203  2.02  0.  0.  0.
   204  2.03  0.  0.  0.
   205  2.04  0.  0.  0.
   206  2.05  0.  0.  0.
   207  2.06  0.  0.  0.
   208  2.07  0.  0.  0.
   209  2.08  0.  0.  0.
   210  2.09  0.  0.  0.
   211  2.10  0.  0.  0.
   212  2.11  0.  0.  0.
   213  2.12  0.  0.  0.
   214  2.13  0.  0.  0.
   215  2.14  0.  0.  0.
   216  2.15  0.  0.  0.
   217  2.16  0.  0.  0.
   218  2.17  0.  0.  0.
   219  2.18  0.  0.  0.
   220  2.19  0.  0.  0.
   221  2.20  0.  0.  0.
   222  2.21  0.  0.  0.
   223  2.22  0.  0.  0.
   224  2.23  0.  0.  0.
   225  2.24  0.  0.  0.
   226  2.25  0.  0.  0.
   227  2.26  0.  0.  0.
   228  2.27  0.  0.  0.
   229  2.28  0.  0.  0.
   230  2.29  0.  0.  0.
   231  2.30  0.  0.  0.
   232  2.31  0.  0.  0.
   233  2.32  0.  0.  0.
   234  2.33  0.  0.  0.
   235  2.34  0.  0.  0.
   236  2.35  0.  0.  0.
   237  2.36  0.  0.  0.
   238  2.37  0.  0.  0.
   239  2.38  0.  0.  0.
   240  2.39  0.  0.  0.
   241  2.40  0.  0.  0.
   242  2.41  0.  0.  0.
   243  2.42  0.  0.  0.
   244  2.43  0.  0.  0.
   245  2.44  0.  0.  0.
   246  2.45  0.  0.  0.
   247  2.46  0.  0.  0.
   248  2.47  0.  0.  0.
   249  2.48  0.  0.  0.
   250  2.49  0.  0.  0.
   251  2.50  0.  0.  0.
   252  2.51  0.  0.  0.
   253  2.52  0.  0.  0.
   254  2.53  0.  0.  0.
   255  2.54  0.  0.  0.
   256  2.55  0.  0.  0.
   257  2.56  0.  0.  0.
   258  2.57  0.  0.  0.
   259  2.58  0.  0.  0.
   260  2.59  0.  0.  0.
   261  2.60  0.  0.  0.
   262  2.61  0.  0.  0.
   263  2.62  0.  0.  0.
   264  2.63  0.  0.  0.
   265  2.64  0.  0.  0.
   266  2.65  0.  0.  0.
   267  2.66  0.  0.  0.
   268  2.67  0.  0.  0.
   269  2.68  0.  0.  0.
   270  2.69  0.  0.  0.
   271  2.70  0.  0.  0.
   272  2.71  0.  0.  0.
   273  2.72  0.  0.  0.
   274  2.73  0.  0.  0.
   275  2.74  0.  0.  0.
   276  2.75  0.  0.  0.
   277  2.76  0.  0.  0.
   278  2.77  0.  0.  0.
   279  2.78  0.  0.  0.
   280  2.79  0.  0.  0.
   281  2.80  0.  0.  0.
   282  2.81  0.  0.  0.
   283  2.82  0.  0.  0.
   284  2.83  0.  0.  0.
   285  2.84  0.  0.  0.
   286  2.85  0.  0.  0.
   287  2.86  0.  0.  0.
   288  2.87  0.  0.  0.
   289  2.88  0.  0.  0.
   290  2.89  0.  0.  0.
   291  2.90  0.  0.  0.
   292  2.91  0.  0.  0.
   293  2.92  0.  0.  0.
   294  2.93  0.  0.  0.
   295  2.94  0.  0.  0.
   296  2.95  0.  0.  0.
   297  2.96  0.  0.  0.
   298  2.97  0.  0.  0.
   299  2.98  0.  0.  0.
   300  2.99  0.  0.  0.
   301  3.00  0.  0.  0.
   302  3.01  0.  0.  0.
   303  3.02  0.  0.  0.
   304  3.03  0.  0.  0.
   305  3.04  0.  0.  0.
   306  3.05  0.  0.  0.
   307  3.06  0.  0.  0.
   308  3.07  0.  0.  0.
   309  3.08  0.  0.  0.
   310  3.09  0.  0.  0.
   311  3.10  0.  0.  0.
   312  3.11  0.  0.  0.
   313  3.12  0.  0.  0.
   314  3.13  0.  0.  0.
   315  3.14  0.  0.  0.
   316  3.15  0.  0.  0.
   317  3.16  0.  0.  0.
   318  3.17  0.  0.  0.
   319  3.18  0.  0.  0.
   320  3.19  0.  0.  0.
   321  3.20  0.  0.  0.
   322  3.21  0.  0.  0.
   323  3.22  0.  0.  0.
   324  3.23  0.  0.  0.
   325  3.24  0.  0.  0.
   326  3.25  0.  0.  0.
   327  3.26  0.  0.  0.
   328  3.27  0.  0.  0.
   329  3.28  0.  0.  0.
   330  3.29  0.  0.  0.
   331  3.30  0.  0.  0.
   332  3.31  0.  0.  0.
   333  3.32  0.  0.  0.
   334  3.33  0.  0.  0.
   335  3.34  0.  0.  0.
   336  3.35  0.  0.  0.
   337  3.36  0.  0.  0.
   338  3.37  0.  0.  0.
   339  3.38  0.  0.  0.
   340  3.39  0.  0.  0.
   341  3.40  0.  0.  0.
   342  3.41  0.  0.  0.
   343  3.42  0.  0.  0.
   344  3.43  0.  0.  0.
   345  3.44  0.  0.  0.
   346  3.45  0.  0.  0.
   347  3.46  0.  0.  0.
   348  3.47  0.  0.  0.
   349  3.48  0.  0.  0.
   350  3.49  0.  0.  0.
   351  3.50  0.  0.  0.
   352  3.51  0.  0.  0.
   353  3.52  0.  0.  0.
   354  3.53  0.  0.  0.
   355  3.54  0.  0.  0.
   356  3.55  0.  0.  0.
   357  3.56  0.  0.  0.
   358  3.57  0.  0.  0.
   359  3.58  0.  0.  0.
   360  3.59  0.  0.  0.
   361  3.60  0.  0.  0.
   362  3.61  0.  0.  0.
   363  3.62  0.  0.  0.
   364  3.63  0.  0.  0.
   365  3.64  0.  0.  0.
   366  3.65  0.  0.  0.
   367  3.66  0.  0.  0.
   368  3.67  0.  0.  0.
   369  3.68  0.  0.  0.
   370  3.69  0.  0.  0.
   371  3.70  0.  0.  0.
   372  3.71  0.  0.  0.
   373  3.72  0.  0.  0.
   374  3.73  0.  0.  0.
   375  3.74  0.  0.  0.
   376  3.75  0.  0.  0.
   377  3.76  0.  0.  0.
   378  3.77  0.  0.  0.
   379  3.78  0.  0.  0.
   380  3.79  0.  0.  0.
   381  3.80  0.  0.  0.
   382  3.81  0.  0.  0.
   383  3.82  0.  0.  0.
   384  3.83  0.  0.  0.
   385  3.84  0.  0.  0.
   386  3.85  0.  0.  0.
   387  3.86  0.  0.  0.
   388  3.87  0.  0.  0.
   389  3.88  0.  0.  0.
   390  3.89  0.  0.  0.
   391  3.90  0.  0.  0.
   392  3.91  0.  0.  0.
   393  3.92  0.  0.  0.
   394  3.93  0.  0.  0.
   395  3.94  0.  0.  0.
   396  3.95  0.  0.  0.
   397  3.96  0.  0.  0.
   398  3.97  0.  0.  0.
   399  3.98  0.  0.  0.
   400  3.99  0.  0.  0.
   401  4.00  0.  0.  0.
   402  4.01  0.  0.  0.
   403  4.02  0.  0.  0.
   404  4.03  0.  0.  0.
   405  4.04  0.  0.  0.
   406  4.05  0.  0.  0.
   407  4.06  0.  0.  0.
   408  4.07  0.  0.  0.
   409  4.08  0.  0.  0.
   410  4.09  0.  0.  0.
   411  4.10  0.  0.  0.
   412  4.11  0.  0.  0.
   413  4.12  0.  0.  0.
   414  4.13  0.  0.  0.
   415  4.14  0.  0.  0.
   416  4.15  0.  0.  0.
   417  4.16  0.  0.  0.
   418  4.17  0.  0.  0.
   419  4.18  0.  0.  0.
   420  4.19  0.  0.  0.
   421  4.20  0.  0.  0.
   422  4.21  0.  0.  0.
   423  4.22  0.  0.  0.
   424  4.23  0.  0.  0.
   425  4.24  0.  0.  0.
   426  4.25  0.  0.  0.
   427  4.26  0.  0.  0.
   428  4.27  0.  0.  0.
   429  4.28  0.  0.  0.
   430  4.29  0.  0.  0.
   431  4.30  0.  0.  0.
   432  4.31  0.  0.  0.
   433  4.32  0.  0.  0.
   434  4.33  0.  0.  0.
   435  4.34  0.  0.  0.
   436  4.35  0.  0.  0.
   437  4.36  0.  0.  0.
   438  4.37  0.  0.  0.
   439  4.38  0.  0.  0.
   440  4.39  0.  0.  0.
   441  4.40  0.  0.  0.
   442  4.41  0.  0.  0.
   443  4.42  0.  0.  0.
   444  4.43  0.  0.  0.
   445  4.44  0.  0.  0.
   446  4.45  0.  0.  0.
   447  4.46  0.  0.  0.
   448  4.47  0.  0.  0.
   449  4.48  0.  0.  0.
   450  4.49  0.  0.  0.
   451  4.50  0.  0.  0.
   452  4.51  0.  0.  0.
   453  4.52  0.  0.  0.
   454  4.53  0.  0.  0.
   455  4.54  0.  0.  0.
   456  4.55  0.  0.  0.
   457  4.56  0.  0.  0.
   458  4.57  0.  0.  0.
   459  4.58  0.  0.  0.
   460  4.59  0.  0.  0.
   461  4.60  0.  0.  0.
   462  4.61  0.  0.  0.
   463  4.62  0.  0.  0.
   464  4.63  0.  0.  0.
   465  4.64  0.  0.  0.
   466  4.65  0.  0.  0.
   467  4.66  0.  0.  0.
   468  4.67  0.  0.  0.
   469  4.68  0.  0.  0.
   470  4.69  0.  0.  0.
   471  4.70  0.  0.  0.
   472  4.71  0.  0.  0.
   473  4.72  0.  0.  0.
   474  4.73  0.  0.  0.
   475  4.74  0.  0.  0.
   476  4.75  0.  0.  0.
   477  4.76  0.  0.  0.
   478  4.77  0.  0.  0.
   479  4.78  0.  0.  0.
   480  4.79  0.  0.  0.
   481  4.80  0.  0.  0.
   482  4.81  0.  0.  0.
   483  4.82  0.  0.  0.
   484  4.83  0.  0.  0.
   485  4.84  0.  0.  0.
   486  4.85  0.  0.  0.
   487  4.86  0.  0.  0.
   488  4.87  0.  0.  0.
   489  4.88  0.  0.  0.
   490  4.89  0.  0.  0.
   491  4.90  0.  0.  0.
   492  4.91  0.  0.  0.
   493  4.92  0.  0.  0.
   494  4.93  0.  0.  0.
   495  4.94  0.  0.  0.
   496  4.95  0.  0.  0.
   497  4.96  0.  0.  0.
   498  4.97  0.  0.  0.
   499  4.98  0.  0.  0.
   500  4.99  0.  0.  0.
   501  5.00  0.  0.  0.
   502  5.01  0.  0.  0.
   503  5.02  0.  0.  0.
   504  5.03  0.  0.  0.
   505  5.04  0.  0.  0.
   506  5.05  0.  0.  0.
   507  5.06  0.  0.  0.
   508  5.07  0.  0.  0.
   509  5.08  0.  0.  0.
   510  5.09  0.  0.  0.
   511  5.10  0.  0.  0.
   512  5.11  0.  0.  0.
   513  5.12  0.  0.  0.
   514  5.13  0.  0.  0.
   515  5.14  0.  0.  0.
   516  5.15  0.  0.  0.
   517  5.16  0.  0.  0.
   518  5.17  0.  0.  0.
   519  5.18  0.  0.  0.
   520  5.19  0.  0.  0.
   521  5.20  0.  0.  0.
   522  5.21  0.  0.  0.
   523  5.22  0.  0.  0.
   524  5.23  0.  0.  0.
   525  5.24  0.  0.  0.
   526  5.25  0.  0.  0.
   527  5.26  0.  0.  0.
   528  5.27  0.  0.  0.
   529  5.28  0.  0.  0.
   530  5.29  0.  0.  0.
   531  5.30  0.  0.  0.
   532  5.31  0.  0.  0.
   533  5.32  0.  0.  0.
   534  5.33  0.  0.  0.
   535  5.34  0.  0.  0.
   536  5.35  0.  0.  0.
   537  5.36  0.  0.  0.
   538  5.37  0.  0.  0.
   539  5.38  0.  0.  0.
   540  5.39  0.  0.  0.
   541  5.40  0.  0.  0.
   542  5.41  0.  0.  0.
   543  5.42  0.  0.  0.
   544  5.43  0.  0.  0.
   545  5.44  0.  0.  0.
   546  5.45  0.  0.  0.
   547  5.46  0.  0.  0.
   548  5.47  0.  0.  0.
   549  5.48  0.  0.  0.
   550  5.49  0.  0.  0.
   551  5.50  0.  0.  0.
   552  5.51  0.  0.  0.
   553  5.52  0.  0.  0.
   554  5.53  0.  0.  0.
   555  5.54  0.  0.  0.
   556  5.55  0.  0.  0.
   557  5.56  0.  0.  0.
   558  5.57  0.  0.  0.
   559  5.58  0.  0.  0.
   560  5.59  0.  0.  0.
   561  5.60  0.  0.  0.
   562  5.61  0.  0.  0.
   563  5.62  0.  0.  0.
   564  5.63  0.  0.  0.
   565  5.64  0.  0.  0.
   566  5.65  0.  0.  0.
   567  5.66  0.  0.  0.
   568  5.67  0.  0.  0.
   569  5.68  0.  0.  0.
   570  5.69  0.  0.  0.
   571  5.70  0.  0.  0.
   572  5.71  0.  0.  0.
   573  5.72  0.  0.  0.
   574  5.73  0.  0.  0.
   575  5.74  0.  0.  0.
   576  5.75  0.  0.  0.
   577  5.76  0.  0.  0.
   578  5.77  0.  0.  0.
   579  5.78  0.  0.  0.
   580  5.79  0.  0.  0.
   581  5.80  0.  0.  0.
   582  5.81  0.  0.  0.
   583  5.82  0.  0.  0.
   584  5.83  0.  0.  0.
   585  5.84  0.  0.  0.
   586  5.85  0.  0.  0.
   587  5.86  0.  0.  0.
   588  5.87  0.  0.  0.
   589  5.88  0.  0.  0.
   590  5.89  0.  0.  0.
   591  5.90  0.  0.  0.
   592  5.91  0.  0.  0.
   593  5.92  0.  0.  0.
   594  5.93  0.  0.  0.
   595  5.94  0.  0.  0.
   596  5.95  0.  0.  0.
   597  5.96  0.  0.  0.
   598  5.97  0.  0.  0.
   599  5.98  0.  0.  0.
   600  5.99  0.  0.  0.
   1                         3.2760569009884E+01  3.6282882720607E+00 -1.3941994927083E-01
     1  0.0000000000000E+00 -1.2667311571901E-07  2.8230780239891E-07 -3.0413947796348E-07
     2  1.0000000000000E-02  4.9487368453705E-03 -1.1236791289694E-03  1.2977381186606E-03
     3  2.0000000000000E-02  1.9774754354784E-02 -4.5281900266833E-03  5.2277367384450E-03
     4  3.0000000000000E-02  4.4415946263901E-02 -1.0310055229553E-02  1.1896225839139E-02
     5  4.0000000000000E-02  7.8763817039801E-02 -1.8617385729241E-02  2.1466767313465E-02
     6  5.0000000000000E-02  1.2265636795034E-01 -2.9631545791006E-02  3.4140900400473E-02
     7  6.0000000000000E-02  1.7586884503341E-01 -4.3543049419440E-02  5.0132751861556E-02
     8  7.0000000000000E-02  2.3810301092037E-01 -6.0523154632914E-02  6.9639206768178E-02
     9  8.0000000000000E-02  3.0897572914099E-01 -8.0692904015880E-02  9.2807539909880E-02
    10  9.0000000000000E-02  3.8800773372570E-01 -1.0409154943101E-01  1.1970260883232E-01
    11  1.0000000000000E-01  4.7461349376285E-01 -1.3064638468500E-01  1.5027579571928E-01
    12  1.1000000000000E-01  5.6809306959476E-01 -1.6014598698459E-01  1.8433785096315E-01
    13  1.2000000000000E-01  6.6762679460287E-01 -1.9221873636022E-01  2.2153763674872E-01
    14  1.3000000000000E-01  7.7227350663652E-01 -2.2631824759964E-01  2.6134850095358E-01
    15  1.4000000000000E-01  8.8097290110206E-01 -2.6171702265098E-01  3.0306364272202E-01
    16  1.5000000000000E-01  9.9255239076029E-01 -2.9750922874027E-01  3.4580137911826E-01
    17  1.6000000000000E-01  1.1057386444388E+00 -3.3262304844945E-01  3.8852070971304E-01
    18  1.7000000000000E-01  1.2191737486167E+00 -3.6584255562623E-01  4.3004702860494E-01
    19  1.8000000000000E-01  1.3314357035498E+00 -3.9583857010781E-01  4.6910727914711E-01
    20  1.9000000000000E-01  1.4410627409753E+00 -4.2120746040657E-01  5.0437331421205E-01
    21  2.0000000000000E-01  1.5465807449353E+00 -4.4051642174496E-01  5.3451174215482E-01
    22  2.1000000000000E-01  1.6465328815322E+00 -4.5235338033590E-01  5.5823813159147E-01
    23  2.2000000000000E-01  1.7395104067746E+00 -4.5537938378313E-01  5.7437313912315E-01
    24  2.3000000000000E-01  1.8241835315519E+00 -4.4838114807616E-01  5.8189793102016E-01
    25  2.4000000000000E-01  1.8993311844291E+00 -4.3032135512697E-01  5.8000620488580E-01
    26  2.5000000000000E-01  1.9638685291081E+00 -4.0038433686330E-01  5.6815018643230E-01
    27  2.6000000000000E-01  2.0168711641134E+00 -3.5801494239474E-01  5.4607817905888E-01
    28  2.7000000000000E-01  2.0575950548613E+00 -3.0294865758660E-01  5.1386157253761E-01
    29  2.8000000000000E-01  2.0854914175005E+00 -2.3523141966453E-01  4.7190965795478E-01
    30  2.9000000000000E-01  2.1002159820958E+00 -1.5522802616560E-01  4.2097112941831E-01
    31  3.0000000000000E-01  2.1016323001862E+00 -6.3618556142735E-02  3.6212175425492E-01
    32  3.1000000000000E-01  2.0898090172065E+00  3.8617222916156E-02  2.9673833398404E-01
    33  3.2000000000000E-01  2.0650112914067E+00  1.5022692364267E-01  2.2645972729836E-01
    34  3.3000000000000E-01  2.0276867949980E+00  2.6972299693686E-01  1.5313633167313E-01
    35  3.4000000000000E-01  1.9784469677304E+00  3.9542899263872E-01  7.8769990732324E-02
    36  3.5000000000000E-01  1.9180443962405E+00  5.2553260605567E-01  5.4467809632122E-03
    37  3.6000000000000E-01  1.8473473539795E+00  6.5814315821184E-01 -6.4734491708650E-02
    38  3.7000000000000E-01  1.7673126479850E+00  7.9135093450486E-01 -1.2973500810717E-01
    39  3.8000000000000E-01  1.6789579742381E+00  9.2328570836253E-01 -1.8764668499120E-01
    40  3.9000000000000E-01  1.5833349796441E+00  1.0521718102020E+00 -2.3675782706997E-01
    41  4.0000000000000E-01  1.4815041655041E+00  1.1763772676884E+00 -2.7561075336305E-01
    42  4.1000000000000E-01  1.3745126474489E+00  1.2944548344990E+00 -3.0304881575909E-01
    43  4.2000000000000E-01  1.2633756158117E+00  1.4051731286054E+00 -3.1825070388705E-01
    44  4.3000000000000E-01  1.1490621266439E+00  1.5075365986656E+00 -3.2075051516918E-01
    45  4.4000000000000E-01  1.0324856076302E+00  1.6007936045683E+00 -3.1044273501198E-01
    46  4.5000000000000E-01  9.1449919744439E-01  1.6844325076310E+00 -2.8757198784893E-01
    47  4.6000000000000E-01  7.9589576520814E-01  1.7581662869545E+00 -2.5270815051938E-01
    48  4.7000000000000E-01  6.7741219280279E-01  1.8219067993182E+00 -2.0670812929193E-01
    49  4.8000000000000E-01  5.5973726079620E-01  1.8757303496143E+00 -1.5066625517263E-01
    50  4.9000000000000E-01  4.4352227173152E-01  1.9198367079621E+00 -8.5855815701053E-02
    51  5.0000000000000E-01  3.2939338396638E-01  1.9545040727179E+00 -1.3664685844200E-02
    52  5.1000000000000E-01  2.1796452442943E-01  1.9800427148578E+00  6.4471678056016E-02
    53  5.2000000000000E-01  1.0984970614600E-01  1.9967501340195E+00  1.4713647620090E-01
    54  5.3000000000000E-01  5.6735996397339E-03  2.0048705021066E+00  2.3299365857711E-01
    55  5.4000000000000E-01 -9.3920703540913E-02  2.0045609665195E+00  3.2084269628130E-01
    56  5.5000000000000E-01 -1.8826764520257E-01  1.9958670391704E+00  4.0966321632591E-01
    57  5.6000000000000E-01 -2.7667957516813E-01  1.9787088242793E+00  4.9864719556500E-01
    58  5.7000000000000E-01 -3.5845199470774E-01  1.9528792592010E+00  5.8721704381299E-01
    59  5.8000000000000E-01 -4.3287382945994E-01  1.9180548857773E+00  6.7502863482346E-01
    60  5.9000000000000E-01 -4.9924258533389E-01  1.8738189671672E+00  7.6195913127150E-01
    61  6.0000000000000E-01 -5.5688392999624E-01  1.8196960521249E+00  8.4808025739653E-01
    62  6.1000000000000E-01 -6.0517494442035E-01  1.7551964020318E+00  9.3361845998848E-01
    63  6.2000000000000E-01 -6.4357001982257E-01  1.6798680719898E+00  1.0189041247243E+00
    64  6.3000000000000E-01 -6.7162815030431E-01  1.5933539100518E+00  1.1043126426121E+00
    65  6.4000000000000E-01 -6.8904020401143E-01  1.4954503382835E+00  1.1902006168717E+00
    66  6.5000000000000E-01 -6.9565465640644E-01  1.3861645302843E+00  1.2768408363961E+00
    67  6.6000000000000E-01 -6.9150024596843E-01  1.2657665195201E+00  1.3643597979310E+00
    68  6.7000000000000E-01 -6.7680406930831E-01  1.1348328708226E+00  1.4526815238368E+00
    69  6.8000000000000E-01 -6.5200376941120E-01  9.9427882444758E-01  1.5414811937081E+00
    70  6.9000000000000E-01 -6.1775268359762E-01  8.4537627007201E-01  1.6301516937017E+00
    71  7.0000000000000E-01 -5.7491709895338E-01  6.8975551009319E-01  1.7177856041879E+00
    72  7.1000000000000E-01 -5.2456510099422E-01  5.2938950271901E-01  1.8031744198084E+00
    73  7.2000000000000E-01 -4.6794688149579E-01  3.6656010340708E-01  1.8848259595607E+00
    74  7.3000000000000E-01 -4.0646677662772E-01  2.0380671063149E-01  1.9610000172798E+00
    75  7.4000000000000E-01 -3.4164771783498E-01  4.3858626969689E-02  2.0297613683953E+00
    76  7.5000000000000E-01 -2.7508917549034E-01 -1.1044667468590E-01  2.0890483327490E+00