Rf    ONCVPSP-4.0.1  r_core=   1.10045   1.10045   1.10045   1.20376
104.0000     44.0000      221107    zatom,zion,pspd
8      11   3     4   600     0    pspcod,pspxc,lmax,lloc,mmax,r2well
5.99000000  3.50000000  0.00000000    rchrg fchrg qchrg
3     2     2     2     0    nproj
1     1           extension_switch
0                         1.9176564151075E+01 -4.8893126159556E+00  1.7539730090703E+00
1  0.0000000000000E+00 -7.4477502831627E-08 -8.5115401393665E-09 -2.4220030447886E-07
2  1.0000000000000E-02  1.7927312240371E-01  4.9171022952956E-02  6.3326717825626E-02
3  2.0000000000000E-02  3.5687179852593E-01  9.8263510655230E-02  1.2483416754198E-01
4  3.0000000000000E-02  5.3114656463702E-01  1.4720030537080E-01  1.8275509170440E-01
5  4.0000000000000E-02  7.0049730490773E-01  1.9590694675232E-01  2.3542447238343E-01
6  5.0000000000000E-02  8.6339640284183E-01  2.4431287879565E-01  2.8132626331307E-01
7  6.0000000000000E-02  1.0184101222957E+00  2.9235249322416E-01  3.1913504168692E-01
8  7.0000000000000E-02  1.1642177200244E+00  3.3996596535755E-01  3.4775118638480E-01
9  8.0000000000000E-02  1.2996278661701E+00  3.8709984703199E-01  3.6632843161286E-01
10  9.0000000000000E-02  1.4235920368600E+00  4.3370739110980E-01  3.7429292948370E-01
11  1.0000000000000E-01  1.5352146408421E+00  4.7974859314539E-01  3.7135327088870E-01
12  1.1000000000000E-01  1.6337597462661E+00  5.2518994741077E-01  3.5750124887706E-01
13  1.2000000000000E-01  1.7186543804808E+00  5.7000392625971E-01  3.3300348971090E-01
14  1.3000000000000E-01  1.7894884811901E+00  6.1416820324684E-01  2.9838441067338E-01
15  1.4000000000000E-01  1.8460116776841E+00  6.5766465105599E-01  2.5440127776533E-01
16  1.5000000000000E-01  1.8881271725803E+00  7.0047815470182E-01  2.0201241866555E-01
17  1.6000000000000E-01  1.9158830743600E+00  7.4259528827145E-01  1.4233988607655E-01
18  1.7000000000000E-01  1.9294615962677E+00  7.8400290935550E-01  7.6628054874361E-02
19  1.8000000000000E-01  1.9291665857247E+00  8.2468672904562E-01  6.1997664294806E-03
20  1.9000000000000E-01  1.9154098788267E+00  8.6462991679817E-01 -6.7588299534073E-02
21  2.0000000000000E-01  1.8886969860137E+00  9.0381179852757E-01 -1.4338934322404E-01
22  2.1000000000000E-01  1.8496126075775E+00  9.4220670303386E-01 -2.1990763357383E-01
23  2.2000000000000E-01  1.7988064520398E+00  9.7978300641952E-01 -2.9593567228107E-01
24  2.3000000000000E-01  1.7369797879570E+00  1.0165024167271E+00 -3.7038601858581E-01
25  2.4000000000000E-01  1.6648731024272E+00  1.0523195319272E+00 -4.4231668997555E-01
26  2.5000000000000E-01  1.5832551700139E+00  1.0871816939640E+00 -5.1094932334859E-01
27  2.6000000000000E-01  1.4929137569658E+00  1.1210291502388E+00 -5.7567957940648E-01
28  2.7000000000000E-01  1.3946481007666E+00  1.1537955221163E+00 -6.3607958841914E-01
29  2.8000000000000E-01  1.2892632176693E+00  1.1854085682463E+00 -6.9189255566724E-01
30  2.9000000000000E-01  1.1775660044463E+00  1.2157912191563E+00 -7.4301995740595E-01
31  3.0000000000000E-01  1.0603630185313E+00  1.2448628491268E+00 -7.8950205109076E-01
32  3.1000000000000E-01  9.3845974619398E-01  1.2725407422210E+00 -8.3149268571968E-01
33  3.2000000000000E-01  8.1266110422783E-01  1.2987417018433E+00 -8.6922961957577E-01
34  3.3000000000000E-01  6.8377286918526E-01  1.3233837476382E+00 -9.0300172519496E-01
35  3.4000000000000E-01  5.5260369132781E-01  1.3463878401175E+00 -9.3311457872381E-01
36  3.5000000000000E-01  4.1996732939349E-01  1.3676795722436E+00 -9.5985598884835E-01
37  3.6000000000000E-01  2.8668473762967E-01  1.3871907683351E+00 -9.8346301732774E-01
38  3.7000000000000E-01  1.5358564825234E-01  1.4048609340552E+00 -1.0040919793466E+00
39  3.8000000000000E-01  2.1509319883455E-02  1.4206385067398E+00 -1.0217927902093E+00
40  3.9000000000000E-01 -1.0869583568578E-01  1.4344818627249E+00 -1.0364888502614E+00
41  4.0000000000000E-01 -2.3617398169123E-01  1.4463600473386E+00 -1.0479634392724E+00
42  4.1000000000000E-01 -3.6006510817584E-01  1.4562532034952E+00 -1.0558533333690E+00
43  4.2000000000000E-01 -4.7950990368753E-01  1.4641526859735E+00 -1.0596500719137E+00
44  4.3000000000000E-01 -5.9365626622146E-01  1.4700608600626E+00 -1.0587089992883E+00
45  4.4000000000000E-01 -7.0166739407687E-01  1.4739905948714E+00 -1.0522658987525E+00
46  4.5000000000000E-01 -8.0273132009360E-01  1.4759644728022E+00 -1.0394607339066E+00
47  4.6000000000000E-01 -8.9607167998288E-01  1.4760137470635E+00 -1.0193677289448E+00
48  4.7000000000000E-01 -9.8095943999175E-01  1.4741770882638E+00 -9.9103076230923E-01
49  4.8000000000000E-01 -1.0567252534492E+00  1.4704991687522E+00 -9.5350282891467E-01
50  4.9000000000000E-01 -1.1227720719629E+00  1.4650291391861E+00 -9.0588815174054E-01
51  5.0000000000000E-01 -1.1785876068315E+00  1.4578190555945E+00 -8.4738540055062E-01
52  5.1000000000000E-01 -1.2237562207640E+00  1.4489223168478E+00 -7.7733040816515E-01
53  5.2000000000000E-01 -1.2579698298422E+00  1.4383921718871E+00 -6.9523676540554E-01
54  5.3000000000000E-01 -1.2810374108811E+00  1.4262803533323E+00 -6.0083272480762E-01
55  5.4000000000000E-01 -1.2928927393877E+00  1.4126358892976E+00 -4.9409294863142E-01
56  5.5000000000000E-01 -1.2936000271634E+00  1.3975041385613E+00 -3.7526379475858E-01
57  5.6000000000000E-01 -1.2833571846814E+00  1.3809260859325E+00 -2.4488103912560E-01
58  5.7000000000000E-01 -1.2624964997464E+00  1.3629379250109E+00 -1.0377917812411E-01
59  5.8000000000000E-01 -1.2314825982923E+00  1.3435709449204E+00  4.6908269692992E-02
60  5.9000000000000E-01 -1.1909076329200E+00  1.3228517263808E+00  2.0575774586692E-01
61  6.0000000000000E-01 -1.1414837271834E+00  1.3008026410725E+00  3.7107389295401E-01
62  6.1000000000000E-01 -1.0840327858742E+00  1.2774426370518E+00  5.4091671973196E-01
63  6.2000000000000E-01 -1.0194738608628E+00  1.2527882823901E+00  7.1313705730171E-01
64  6.3000000000000E-01 -9.4880833575689E-01  1.2268550296005E+00  8.8541939394449E-01
65  6.4000000000000E-01 -8.7310325829970E-01  1.1996586551343E+00  1.0553309275379E+00
66  6.5000000000000E-01 -7.9347320490248E-01  1.1712168215503E+00  1.2203754633365E+00
67  6.6000000000000E-01 -7.1106110521697E-01  1.1415507051200E+00  1.3780506189809E+00
68  6.7000000000000E-01 -6.2701848483989E-01  1.1106866288028E+00  1.5259066831784E+00
69  6.8000000000000E-01 -5.4248560022894E-01  1.0786576397891E+00  1.6616054132571E+00
70  6.9000000000000E-01 -4.5857194128974E-01  1.0455049722023E+00  1.7829770515921E+00
71  7.0000000000000E-01 -3.7633756397815E-01  1.0112793390094E+00  1.8880738916091E+00
72  7.1000000000000E-01 -2.9677568823124E-01  9.7604200259759E-01  1.9752188287554E+00
73  7.2000000000000E-01 -2.2079695666891E-01  9.3986558063424E-01  2.0430474865984E+00
74  7.3000000000000E-01 -1.4921569825529E-01  9.0283455248873E-01  2.0905427076390E+00
75  7.4000000000000E-01 -8.2738480351507E-02  8.6504544135291E-01  2.1170604354272E+00
76  7.5000000000000E-01 -2.1955164474399E-02  8.2660665790160E-01  2.1223462808954E+00
77  7.6000000000000E-01  3.2667392004579E-02  7.8763800251060E-01  2.1065423522039E+00
78  7.7000000000000E-01  8.0788921482257E-02  7.4826983429956E-01  2.0701842238460E+00
79  7.8000000000000E-01  1.2219662763631E-01  7.0864192618978E-01  2.0141882169848E+00
80  7.9000000000000E-01  1.5680344392379E-01  6.6890203537099E-01  1.9398294486633E+00
81  8.0000000000000E-01  1.8464381742466E-01  6.2920422768407E-01  1.8487113726331E+00
82  8.1000000000000E-01  2.0586722609055E-01  5.8970700211086E-01  1.7427277697249E+00
83  8.2000000000000E-01  2.2072968755959E-01  5.5057126752510E-01  1.6240183425484E+00
84  8.3000000000000E-01  2.2958355648171E-01  5.1195822786017E-01  1.4949192207007E+00
85  8.4000000000000E-01  2.3286593343087E-01  4.7402723371376E-01  1.3579097828882E+00
86  8.5000000000000E-01  2.3108602103821E-01  4.3693365802801E-01  1.2155572474080E+00
87  8.6000000000000E-01  2.2481176149546E-01  4.0082685081968E-01  1.0704604700668E+00
88  8.7000000000000E-01  2.1465607403536E-01  3.6584822302628E-01  9.2519431849320E-01
89  8.8000000000000E-01  2.0126298184084E-01  3.3212950248931E-01  7.8225586548187E-01
90  8.9000000000000E-01  1.8529387595337E-01  2.9979119609719E-01  6.4401346490792E-01
91  9.0000000000000E-01  1.6741411044184E-01  2.6894128139901E-01  5.1265954704655E-01
92  9.1000000000000E-01  1.4828006001998E-01  2.3967413888051E-01  3.9016770259431E-01
93  9.2000000000000E-01  1.2852670044619E-01  2.1206972291173E-01  2.7825432448674E-01
94  9.3000000000000E-01  1.0875569563341E-01  1.8619295552099E-01  1.7834475304526E-01
95  9.4000000000000E-01  8.9523895842160E-02  1.6209331302986E-01  9.1543533176084E-02
96  9.5000000000000E-01  7.1332071158894E-02  1.3980456162831E-01  1.8608053038343E-02
97  9.6000000000000E-01  5.4613626172337E-02  1.1934458459367E-01 -4.0075497518051E-02
98  9.7000000000000E-01  3.9722967863530E-02  1.0071523147622E-01 -8.4515222560666E-02
99  9.8000000000000E-01  2.6923131542169E-02  8.3902108566950E-02 -1.1513732660195E-01
100  9.9000000000000E-01  1.6372204598760E-02  6.8874220049022E-02 -1.3281256636556E-01
101  1.0000000000000E+00  8.1080942323747E-03  5.5583366931288E-02 -1.3888721741057E-01
102  1.0100000000000E+00  2.0350939857814E-03  4.3963544173328E-02 -1.3520093808982E-01
103  1.0200000000000E+00 -2.0461645696845E-03  3.3934252633149E-02 -1.2389118414059E-01
104  1.0300000000000E+00 -4.3917519241850E-03  2.5406632927795E-02 -1.0713805712900E-01
105  1.0400000000000E+00 -5.2991496671120E-03  1.8287493172199E-02 -8.7083228035108E-02
106  1.0500000000000E+00 -5.1080296648395E-03  1.2477548156316E-02 -6.5803854327547E-02
107  1.0600000000000E+00 -4.2180358225598E-03  7.8585771897310E-03 -4.5340541384679E-02
108  1.0700000000000E+00 -2.9317539866450E-03  4.3624956092207E-03 -2.7256948370588E-02
109  1.0800000000000E+00 -1.5694625591044E-03  1.9277667563595E-03 -1.2921333881922E-02
110  1.0900000000000E+00 -4.7179946487755E-04  4.9100492738630E-04 -3.4982995716822E-03
111  1.1000000000000E+00 -4.6877688471020E-06  4.2242537296427E-06 -3.1586474906584E-05
112  1.1100000000000E+00 -3.1244084722143E-06  2.8545454010790E-06 -2.1371757672918E-05
113  1.1200000000000E+00  8.6268514103507E-08 -8.4180395660931E-08  6.1449386252368E-07
114  1.13  0.  0.  0.
115  1.14  0.  0.  0.
116  1.15  0.  0.  0.
117  1.16  0.  0.  0.
118  1.17  0.  0.  0.
119  1.18  0.  0.  0.
120  1.19  0.  0.  0.
121  1.20  0.  0.  0.
122  1.21  0.  0.  0.
123  1.22  0.  0.  0.
124  1.23  0.  0.  0.
125  1.24  0.  0.  0.
126  1.25  0.  0.  0.
127  1.26  0.  0.  0.
128  1.27  0.  0.  0.
129  1.28  0.  0.  0.
130  1.29  0.  0.  0.
131  1.30  0.  0.  0.
132  1.31  0.  0.  0.
133  1.32  0.  0.  0.
134  1.33  0.  0.  0.
135  1.34  0.  0.  0.
136  1.35  0.  0.  0.
137  1.36  0.  0.  0.
138  1.37  0.  0.  0.
139  1.38  0.  0.  0.
140  1.39  0.  0.  0.
141  1.40  0.  0.  0.
142  1.41  0.  0.  0.
143  1.42  0.  0.  0.
144  1.43  0.  0.  0.
145  1.44  0.  0.  0.
146  1.45  0.  0.  0.
147  1.46  0.  0.  0.
148  1.47  0.  0.  0.
149  1.48  0.  0.  0.
150  1.49  0.  0.  0.
151  1.50  0.  0.  0.
152  1.51  0.  0.  0.
153  1.52  0.  0.  0.
154  1.53  0.  0.  0.
155  1.54  0.  0.  0.
156  1.55  0.  0.  0.
157  1.56  0.  0.  0.
158  1.57  0.  0.  0.
159  1.58  0.  0.  0.
160  1.59  0.  0.  0.
161  1.60  0.  0.  0.
162  1.61  0.  0.  0.
163  1.62  0.  0.  0.
164  1.63  0.  0.  0.
165  1.64  0.  0.  0.
166  1.65  0.  0.  0.
167  1.66  0.  0.  0.
168  1.67  0.  0.  0.
169  1.68  0.  0.  0.
170  1.69  0.  0.  0.
171  1.70  0.  0.  0.
172  1.71  0.  0.  0.
173  1.72  0.  0.  0.
174  1.73  0.  0.  0.
175  1.74  0.  0.  0.
176  1.75  0.  0.  0.
177  1.76  0.  0.  0.
178  1.77  0.  0.  0.
179  1.78  0.  0.  0.
180  1.79  0.  0.  0.
181  1.80  0.  0.  0.
182  1.81  0.  0.  0.
183  1.82  0.  0.  0.
184  1.83  0.  0.  0.
185  1.84  0.  0.  0.
186  1.85  0.  0.  0.
187  1.86  0.  0.  0.
188  1.87  0.  0.  0.
189  1.88  0.  0.  0.
190  1.89  0.  0.  0.
191  1.90  0.  0.  0.
192  1.91  0.  0.  0.
193  1.92  0.  0.  0.
194  1.93  0.  0.  0.
195  1.94  0.  0.  0.
196  1.95  0.  0.  0.
197  1.96  0.  0.  0.
198  1.97  0.  0.  0.
199  1.98  0.  0.  0.
200  1.99  0.  0.  0.
201  2.00  0.  0.  0.
202  2.01  0.  0.  0.
203  2.02  0.  0.  0.
204  2.03  0.  0.  0.
205  2.04  0.  0.  0.
206  2.05  0.  0.  0.
207  2.06  0.  0.  0.
208  2.07  0.  0.  0.
209  2.08  0.  0.  0.
210  2.09  0.  0.  0.
211  2.10  0.  0.  0.
212  2.11  0.  0.  0.
213  2.12  0.  0.  0.
214  2.13  0.  0.  0.
215  2.14  0.  0.  0.
216  2.15  0.  0.  0.
217  2.16  0.  0.  0.
218  2.17  0.  0.  0.
219  2.18  0.  0.  0.
220  2.19  0.  0.  0.
221  2.20  0.  0.  0.
222  2.21  0.  0.  0.
223  2.22  0.  0.  0.
224  2.23  0.  0.  0.
225  2.24  0.  0.  0.
226  2.25  0.  0.  0.
227  2.26  0.  0.  0.
228  2.27  0.  0.  0.
229  2.28  0.  0.  0.
230  2.29  0.  0.  0.
231  2.30  0.  0.  0.
232  2.31  0.  0.  0.
233  2.32  0.  0.  0.
234  2.33  0.  0.  0.
235  2.34  0.  0.  0.
236  2.35  0.  0.  0.
237  2.36  0.  0.  0.
238  2.37  0.  0.  0.
239  2.38  0.  0.  0.
240  2.39  0.  0.  0.
241  2.40  0.  0.  0.
242  2.41  0.  0.  0.
243  2.42  0.  0.  0.
244  2.43  0.  0.  0.
245  2.44  0.  0.  0.
246  2.45  0.  0.  0.
247  2.46  0.  0.  0.
248  2.47  0.  0.  0.
249  2.48  0.  0.  0.
250  2.49  0.  0.  0.
251  2.50  0.  0.  0.
252  2.51  0.  0.  0.
253  2.52  0.  0.  0.
254  2.53  0.  0.  0.
255  2.54  0.  0.  0.
256  2.55  0.  0.  0.
257  2.56  0.  0.  0.
258  2.57  0.  0.  0.
259  2.58  0.  0.  0.
260  2.59  0.  0.  0.
261  2.60  0.  0.  0.
262  2.61  0.  0.  0.
263  2.62  0.  0.  0.
264  2.63  0.  0.  0.
265  2.64  0.  0.  0.
266  2.65  0.  0.  0.
267  2.66  0.  0.  0.
268  2.67  0.  0.  0.
269  2.68  0.  0.  0.
270  2.69  0.  0.  0.
271  2.70  0.  0.  0.
272  2.71  0.  0.  0.
273  2.72  0.  0.  0.
274  2.73  0.  0.  0.
275  2.74  0.  0.  0.
276  2.75  0.  0.  0.
277  2.76  0.  0.  0.
278  2.77  0.  0.  0.
279  2.78  0.  0.  0.
280  2.79  0.  0.  0.
281  2.80  0.  0.  0.
282  2.81  0.  0.  0.
283  2.82  0.  0.  0.
284  2.83  0.  0.  0.
285  2.84  0.  0.  0.
286  2.85  0.  0.  0.
287  2.86  0.  0.  0.
288  2.87  0.  0.  0.
289  2.88  0.  0.  0.
290  2.89  0.  0.  0.
291  2.90  0.  0.  0.
292  2.91  0.  0.  0.
293  2.92  0.  0.  0.
294  2.93  0.  0.  0.
295  2.94  0.  0.  0.
296  2.95  0.  0.  0.
297  2.96  0.  0.  0.
298  2.97  0.  0.  0.
299  2.98  0.  0.  0.
300  2.99  0.  0.  0.
301  3.00  0.  0.  0.
302  3.01  0.  0.  0.
303  3.02  0.  0.  0.
304  3.03  0.  0.  0.
305  3.04  0.  0.  0.
306  3.05  0.  0.  0.
307  3.06  0.  0.  0.
308  3.07  0.  0.  0.
309  3.08  0.  0.  0.
310  3.09  0.  0.  0.
311  3.10  0.  0.  0.
312  3.11  0.  0.  0.
313  3.12  0.  0.  0.
314  3.13  0.  0.  0.
315  3.14  0.  0.  0.
316  3.15  0.  0.  0.
317  3.16  0.  0.  0.
318  3.17  0.  0.  0.
319  3.18  0.  0.  0.
320  3.19  0.  0.  0.
321  3.20  0.  0.  0.
322  3.21  0.  0.  0.
323  3.22  0.  0.  0.
324  3.23  0.  0.  0.
325  3.24  0.  0.  0.
326  3.25  0.  0.  0.
327  3.26  0.  0.  0.
328  3.27  0.  0.  0.
329  3.28  0.  0.  0.
330  3.29  0.  0.  0.
331  3.30  0.  0.  0.
332  3.31  0.  0.  0.
333  3.32  0.  0.  0.
334  3.33  0.  0.  0.
335  3.34  0.  0.  0.
336  3.35  0.  0.  0.
337  3.36  0.  0.  0.
338  3.37  0.  0.  0.
339  3.38  0.  0.  0.
340  3.39  0.  0.  0.
341  3.40  0.  0.  0.
342  3.41  0.  0.  0.
343  3.42  0.  0.  0.
344  3.43  0.  0.  0.
345  3.44  0.  0.  0.
346  3.45  0.  0.  0.
347  3.46  0.  0.  0.
348  3.47  0.  0.  0.
349  3.48  0.  0.  0.
350  3.49  0.  0.  0.
351  3.50  0.  0.  0.
352  3.51  0.  0.  0.
353  3.52  0.  0.  0.
354  3.53  0.  0.  0.
355  3.54  0.  0.  0.
356  3.55  0.  0.  0.
357  3.56  0.  0.  0.
358  3.57  0.  0.  0.
359  3.58  0.  0.  0.
360  3.59  0.  0.  0.
361  3.60  0.  0.  0.
362  3.61  0.  0.  0.
363  3.62  0.  0.  0.
364  3.63  0.  0.  0.
365  3.64  0.  0.  0.
366  3.65  0.  0.  0.
367  3.66  0.  0.  0.
368  3.67  0.  0.  0.
369  3.68  0.  0.  0.
370  3.69  0.  0.  0.
371  3.70  0.  0.  0.
372  3.71  0.  0.  0.
373  3.72  0.  0.  0.
374  3.73  0.  0.  0.
375  3.74  0.  0.  0.
376  3.75  0.  0.  0.
377  3.76  0.  0.  0.
378  3.77  0.  0.  0.
379  3.78  0.  0.  0.
380  3.79  0.  0.  0.
381  3.80  0.  0.  0.
382  3.81  0.  0.  0.
383  3.82  0.  0.  0.
384  3.83  0.  0.  0.
385  3.84  0.  0.  0.
386  3.85  0.  0.  0.
387  3.86  0.  0.  0.
388  3.87  0.  0.  0.
389  3.88  0.  0.  0.
390  3.89  0.  0.  0.
391  3.90  0.  0.  0.
392  3.91  0.  0.  0.
393  3.92  0.  0.  0.
394  3.93  0.  0.  0.
395  3.94  0.  0.  0.
396  3.95  0.  0.  0.
397  3.96  0.  0.  0.
398  3.97  0.  0.  0.
399  3.98  0.  0.  0.
400  3.99  0.  0.  0.
401  4.00  0.  0.  0.
402  4.01  0.  0.  0.
403  4.02  0.  0.  0.
404  4.03  0.  0.  0.
405  4.04  0.  0.  0.
406  4.05  0.  0.  0.
407  4.06  0.  0.  0.
408  4.07  0.  0.  0.
409  4.08  0.  0.  0.
410  4.09  0.  0.  0.
411  4.10  0.  0.  0.
412  4.11  0.  0.  0.
413  4.12  0.  0.  0.
414  4.13  0.  0.  0.
415  4.14  0.  0.  0.
416  4.15  0.  0.  0.
417  4.16  0.  0.  0.
418  4.17  0.  0.  0.
419  4.18  0.  0.  0.
420  4.19  0.  0.  0.
421  4.20  0.  0.  0.
422  4.21  0.  0.  0.
423  4.22  0.  0.  0.
424  4.23  0.  0.  0.
425  4.24  0.  0.  0.
426  4.25  0.  0.  0.
427  4.26  0.  0.  0.
428  4.27  0.  0.  0.
429  4.28  0.  0.  0.
430  4.29  0.  0.  0.
431  4.30  0.  0.  0.
432  4.31  0.  0.  0.
433  4.32  0.  0.  0.
434  4.33  0.  0.  0.
435  4.34  0.  0.  0.
436  4.35  0.  0.  0.
437  4.36  0.  0.  0.
438  4.37  0.  0.  0.
439  4.38  0.  0.  0.
440  4.39  0.  0.  0.
441  4.40  0.  0.  0.
442  4.41  0.  0.  0.
443  4.42  0.  0.  0.
444  4.43  0.  0.  0.
445  4.44  0.  0.  0.
446  4.45  0.  0.  0.
447  4.46  0.  0.  0.
448  4.47  0.  0.  0.
449  4.48  0.  0.  0.
450  4.49  0.  0.  0.
451  4.50  0.  0.  0.
452  4.51  0.  0.  0.
453  4.52  0.  0.  0.
454  4.53  0.  0.  0.
455  4.54  0.  0.  0.
456  4.55  0.  0.  0.
457  4.56  0.  0.  0.
458  4.57  0.  0.  0.
459  4.58  0.  0.  0.
460  4.59  0.  0.  0.
461  4.60  0.  0.  0.
462  4.61  0.  0.  0.
463  4.62  0.  0.  0.
464  4.63  0.  0.  0.
465  4.64  0.  0.  0.
466  4.65  0.  0.  0.
467  4.66  0.  0.  0.
468  4.67  0.  0.  0.
469  4.68  0.  0.  0.
470  4.69  0.  0.  0.
471  4.70  0.  0.  0.
472  4.71  0.  0.  0.
473  4.72  0.  0.  0.
474  4.73  0.  0.  0.
475  4.74  0.  0.  0.
476  4.75  0.  0.  0.
477  4.76  0.  0.  0.
478  4.77  0.  0.  0.
479  4.78  0.  0.  0.
480  4.79  0.  0.  0.
481  4.80  0.  0.  0.
482  4.81  0.  0.  0.
483  4.82  0.  0.  0.
484  4.83  0.  0.  0.
485  4.84  0.  0.  0.
486  4.85  0.  0.  0.
487  4.86  0.  0.  0.
488  4.87  0.  0.  0.
489  4.88  0.  0.  0.
490  4.89  0.  0.  0.
491  4.90  0.  0.  0.
492  4.91  0.  0.  0.
493  4.92  0.  0.  0.
494  4.93  0.  0.  0.
495  4.94  0.  0.  0.
496  4.95  0.  0.  0.
497  4.96  0.  0.  0.
498  4.97  0.  0.  0.
499  4.98  0.  0.  0.
500  4.99  0.  0.  0.
501  5.00  0.  0.  0.
502  5.01  0.  0.  0.
503  5.02  0.  0.  0.
504  5.03  0.  0.  0.
505  5.04  0.  0.  0.
506  5.05  0.  0.  0.
507  5.06  0.  0.  0.
508  5.07  0.  0.  0.
509  5.08  0.  0.  0.
510  5.09  0.  0.  0.
511  5.10  0.  0.  0.
512  5.11  0.  0.  0.
513  5.12  0.  0.  0.
514  5.13  0.  0.  0.
515  5.14  0.  0.  0.
516  5.15  0.  0.  0.
517  5.16  0.  0.  0.
518  5.17  0.  0.  0.
519  5.18  0.  0.  0.
520  5.19  0.  0.  0.
521  5.20  0.  0.  0.
522  5.21  0.  0.  0.
523  5.22  0.  0.  0.
524  5.23  0.  0.  0.
525  5.24  0.  0.  0.
526  5.25  0.  0.  0.
527  5.26  0.  0.  0.
528  5.27  0.  0.  0.
529  5.28  0.  0.  0.
530  5.29  0.  0.  0.
531  5.30  0.  0.  0.
532  5.31  0.  0.  0.
533  5.32  0.  0.  0.
534  5.33  0.  0.  0.
535  5.34  0.  0.  0.
536  5.35  0.  0.  0.
537  5.36  0.  0.  0.
538  5.37  0.  0.  0.
539  5.38  0.  0.  0.
540  5.39  0.  0.  0.
541  5.40  0.  0.  0.
542  5.41  0.  0.  0.
543  5.42  0.  0.  0.
544  5.43  0.  0.  0.
545  5.44  0.  0.  0.
546  5.45  0.  0.  0.
547  5.46  0.  0.  0.
548  5.47  0.  0.  0.
549  5.48  0.  0.  0.
550  5.49  0.  0.  0.
551  5.50  0.  0.  0.
552  5.51  0.  0.  0.
553  5.52  0.  0.  0.
554  5.53  0.  0.  0.
555  5.54  0.  0.  0.
556  5.55  0.  0.  0.
557  5.56  0.  0.  0.
558  5.57  0.  0.  0.
559  5.58  0.  0.  0.
560  5.59  0.  0.  0.
561  5.60  0.  0.  0.
562  5.61  0.  0.  0.
563  5.62  0.  0.  0.
564  5.63  0.  0.  0.
565  5.64  0.  0.  0.
566  5.65  0.  0.  0.
567  5.66  0.  0.  0.
568  5.67  0.  0.  0.
569  5.68  0.  0.  0.
570  5.69  0.  0.  0.
571  5.70  0.  0.  0.
572  5.71  0.  0.  0.
573  5.72  0.  0.  0.
574  5.73  0.  0.  0.
575  5.74  0.  0.  0.
576  5.75  0.  0.  0.
577  5.76  0.  0.  0.
578  5.77  0.  0.  0.
579  5.78  0.  0.  0.
580  5.79  0.  0.  0.
581  5.80  0.  0.  0.
582  5.81  0.  0.  0.
583  5.82  0.  0.  0.
584  5.83  0.  0.  0.
585  5.84  0.  0.  0.
586  5.85  0.  0.  0.
587  5.86  0.  0.  0.
588  5.87  0.  0.  0.
589  5.88  0.  0.  0.
590  5.89  0.  0.  0.
591  5.90  0.  0.  0.
592  5.91  0.  0.  0.
593  5.92  0.  0.  0.
594  5.93  0.  0.  0.
595  5.94  0.  0.  0.
596  5.95  0.  0.  0.
597  5.96  0.  0.  0.
598  5.97  0.  0.  0.
599  5.98  0.  0.  0.
600  5.99  0.  0.  0.
1                         3.9989478691839E+00 -3.9446408931850E+00
1  0.0000000000000E+00 -4.9790827044704E-08  9.0819782250229E-09
2  1.0000000000000E-02  3.7050315905292E-03  1.9615119124328E-03
3  2.0000000000000E-02  1.4799717567354E-02  7.8315038467875E-03
4  3.0000000000000E-02  3.3222261630296E-02  1.7566570853769E-02
5  4.0000000000000E-02  5.8867808813941E-02  3.1095119932904E-02
6  5.0000000000000E-02  9.1585787037408E-02  4.8318471142305E-02
7  6.0000000000000E-02  1.3117644533464E-01  6.9112356442896E-02
8  7.0000000000000E-02  1.7738683410111E-01  9.3328775437949E-02
9  8.0000000000000E-02  2.2990652248378E-01  1.2079815808680E-01
10  9.0000000000000E-02  2.8836338384731E-01  1.5133177718343E-01
11  1.0000000000000E-01  3.5231980027651E-01  1.8472434814083E-01
12  1.1000000000000E-01  4.2126964022843E-01  2.2075675057251E-01
13  1.2000000000000E-01  4.9463634937746E-01  2.5919880538756E-01
14  1.3000000000000E-01  5.7177246382084E-01  2.9981204259807E-01
15  1.4000000000000E-01  6.5196080829390E-01  3.4235239867193E-01
16  1.5000000000000E-01  7.3441758174975E-01  3.8657278785994E-01
17  1.6000000000000E-01  8.1829746107103E-01  4.3222549921832E-01
18  1.7000000000000E-01  9.0270077380477E-01  4.7906437970747E-01
19  1.8000000000000E-01  9.8668270602994E-01  5.2684677339732E-01
20  1.9000000000000E-01  1.0692644254117E+00  5.7533519703697E-01
21  2.0000000000000E-01  1.1494459158793E+00  6.2429874262693E-01
22  2.1000000000000E-01  1.2262202428279E+00  6.7351420774154E-01
23  2.2000000000000E-01  1.2985888996947E+00  7.2276696378546E-01
24  2.3000000000000E-01  1.3655778312322E+00  7.7185158076542E-01
25  2.4000000000000E-01  1.4262536883138E+00  8.2057223420551E-01
26  2.5000000000000E-01  1.4797398455660E+00  8.6874292528221E-01
27  2.6000000000000E-01  1.5252317077269E+00  9.1618754893301E-01
28  2.7000000000000E-01  1.5620108438242E+00  9.6273984650775E-01
29  2.8000000000000E-01  1.5894575197208E+00  1.0082432794788E+00
30  2.9000000000000E-01  1.6070612481790E+00  1.0525508588810E+00
31  3.0000000000000E-01  1.6144290395314E+00  1.0955249616722E+00
32  3.1000000000000E-01  1.6112911128273E+00  1.1370371603137E+00
33  3.2000000000000E-01  1.5975039139308E+00  1.1769680858652E+00
34  3.3000000000000E-01  1.5730503800141E+00  1.2152073380886E+00
35  3.4000000000000E-01  1.5380374854910E+00  1.2516534488504E+00
36  3.5000000000000E-01  1.4926911987890E+00  1.2862138978617E+00
37  3.6000000000000E-01  1.4373490686335E+00  1.3188051728998E+00
38  3.7000000000000E-01  1.3724507390637E+00  1.3493528604626E+00
39  3.8000000000000E-01  1.2985267608984E+00  1.3777917476516E+00
40  3.9000000000000E-01  1.2161861210104E+00  1.4040659122344E+00
41  4.0000000000000E-01  1.1261029472975E+00  1.4281287755159E+00
42  4.1000000000000E-01  1.0290028651347E+00  1.4499430919894E+00
43  4.2000000000000E-01  9.2564947957727E-01  1.4694808508079E+00
44  4.3000000000000E-01  8.1683143667021E-01  1.4867230668885E+00
45  4.4000000000000E-01  7.0335047774309E-01  1.5016594438293E+00
46  4.5000000000000E-01  5.8601084411683E-01  1.5142878966083E+00
47  4.6000000000000E-01  4.6561031853729E-01  1.5246139289725E+00
48  4.7000000000000E-01  3.4293310681734E-01  1.5326498682169E+00
49  4.8000000000000E-01  2.1874467206020E-01  1.5384139683109E+00
50  4.9000000000000E-01  9.3788538278872E-02  1.5419294006726E+00
51  5.0000000000000E-01 -3.1215015734599E-02  1.5432231598941E+00
52  5.1000000000000E-01 -1.5556854369321E-01  1.5423249189724E+00
53  5.2000000000000E-01 -2.7859555620484E-01  1.5392658747102E+00
54  5.3000000000000E-01 -3.9963751133054E-01  1.5340776285622E+00
55  5.4000000000000E-01 -5.1805005873692E-01  1.5267911510093E+00
56  5.5000000000000E-01 -6.3319896574187E-01  1.5174358783231E+00
57  5.6000000000000E-01 -7.4445617487724E-01  1.5060389891725E+00
58  5.7000000000000E-01 -8.5119644308998E-01  1.4926249048685E+00
59  5.8000000000000E-01 -9.5279499193526E-01  1.4772150511742E+00
60  5.9000000000000E-01 -1.0486265565225E+00  1.4598279116534E+00
61  6.0000000000000E-01 -1.1380661598698E+00  1.4404793927169E+00
62  6.1000000000000E-01 -1.2204918608554E+00  1.4191835091728E+00
63  6.2000000000000E-01 -1.2952896310442E+00  1.3959533865765E+00
64  6.3000000000000E-01 -1.3618604119012E+00  1.3708025634819E+00
65  6.4000000000000E-01 -1.4196292933990E+00  1.3437465633116E+00
66  6.5000000000000E-01 -1.4680566422972E+00  1.3148046925466E+00
67  6.6000000000000E-01 -1.5066508981264E+00  1.2840020098184E+00
68  6.7000000000000E-01 -1.5349826518993E+00  1.2513713998196E+00
69  6.8000000000000E-01 -1.5526995313782E+00  1.2169556772297E+00
70  6.9000000000000E-01 -1.5595413415823E+00  1.1808096395323E+00
71  7.0000000000000E-01 -1.5553548538266E+00  1.1430019840489E+00
72  7.1000000000000E-01 -1.5401076039591E+00  1.1036170040150E+00
73  7.2000000000000E-01 -1.5139000527875E+00  1.0627559812447E+00
74  7.3000000000000E-01 -1.4769754801979E+00  1.0205381989242E+00
75  7.4000000000000E-01 -1.4297270293966E+00  9.7710150726680E-01
76  7.5000000000000E-01 -1.3727013882032E+00  9.3260238694644E-01
77  7.6000000000000E-01 -1.3065986885163E+00  8.8721547008154E-01
78  7.7000000000000E-01 -1.2322683200454E+00  8.4113249561160E-01
79  7.8000000000000E-01 -1.1507004863294E+00  7.9456069464779E-01
80  7.9000000000000E-01 -1.0630134753180E+00  7.4772062114613E-01
81  8.0000000000000E-01 -9.7043676809413E-01  7.0084346334114E-01
82  8.1000000000000E-01 -8.7429026194228E-01  6.5416789104114E-01
83  8.2000000000000E-01 -7.7596003194601E-01  6.0793651236424E-01
84  8.3000000000000E-01 -6.7687119266268E-01  5.6239203003859E-01
85  8.4000000000000E-01 -5.7845854242066E-01  5.1777320130123E-01
86  8.5000000000000E-01 -4.8213577213713E-01  4.7431071607875E-01
87  8.6000000000000E-01 -3.8926409367265E-01  4.3222311499219E-01
88  8.7000000000000E-01 -3.0112118592242E-01  3.9171287139661E-01
89  8.8000000000000E-01 -2.1887136746678E-01  3.5296275988488E-01
90  8.9000000000000E-01 -1.4353788124052E-01  3.1613262735770E-01
91  9.0000000000000E-01 -7.5978119201501E-02  2.8135667196126E-01
92  9.1000000000000E-01 -1.6862524602401E-02  2.4874132016316E-01
93  9.2000000000000E-01  3.3342211270652E-02  2.1836377339105E-01
94  9.3000000000000E-01  7.4385188318464E-02  1.9027127356712E-01
95  9.4000000000000E-01  1.0623827213873E-01  1.6448111224548E-01
96  9.5000000000000E-01  1.2909788770208E-01  1.4098138173237E-01
97  9.6000000000000E-01  1.4338170963315E-01  1.1973243944794E-01
98  9.7000000000000E-01  1.4972052184436E-01  1.0066902985228E-01
99  9.8000000000000E-01  1.4894570891301E-01  8.3702982489706E-02
100  9.9000000000000E-01  1.4207302805055E-01  6.8726380735541E-02
101  1.0000000000000E+00  1.3028338775072E-01  5.5615077947062E-02
102  1.0100000000000E+00  1.1489540178636E-01  4.4232596795960E-02
103  1.0200000000000E+00  9.7270595687126E-02  3.4436478081015E-02
104  1.0300000000000E+00  7.8708282810992E-02  2.6086705836715E-02
105  1.0400000000000E+00  6.0400291288918E-02  1.9053075968476E-02
106  1.0500000000000E+00  4.3367425948194E-02  1.3225133368702E-02
107  1.0600000000000E+00  2.8347676352230E-02  8.5257757933956E-03
108  1.0700000000000E+00  1.6109441646588E-02  4.8763822987928E-03
109  1.0800000000000E+00  7.1873165297729E-03  2.2337656346477E-03
110  1.0900000000000E+00  1.8221470940705E-03  5.9283023080214E-04
111  1.1000000000000E+00  1.5318280008333E-05  5.3357923189640E-06
112  1.1100000000000E+00  1.0467626091865E-05  3.5832740754212E-06
113  1.1200000000000E+00 -3.1062292954107E-07 -1.0358074801039E-07
114  1.13  0.  0.
115  1.14  0.  0.
116  1.15  0.  0.
117  1.16  0.  0.
118  1.17  0.  0.
119  1.18  0.  0.
120  1.19  0.  0.
121  1.20  0.  0.
122  1.21  0.  0.
123  1.22  0.  0.
124  1.23  0.  0.
125  1.24  0.  0.
126  1.25  0.  0.
127  1.26  0.  0.
128  1.27  0.  0.
129  1.28  0.  0.
130  1.29  0.  0.
131  1.30  0.  0.
132  1.31  0.  0.
133  1.32  0.  0.
134  1.33  0.  0.
135  1.34  0.  0.
136  1.35  0.  0.
137  1.36  0.  0.
138  1.37  0.  0.
139  1.38  0.  0.
140  1.39  0.  0.
141  1.40  0.  0.
142  1.41  0.  0.
143  1.42  0.  0.
144  1.43  0.  0.
145  1.44  0.  0.
146  1.45  0.  0.
147  1.46  0.  0.
148  1.47  0.  0.
149  1.48  0.  0.
150  1.49  0.  0.
151  1.50  0.  0.
152  1.51  0.  0.
153  1.52  0.  0.
154  1.53  0.  0.
155  1.54  0.  0.
156  1.55  0.  0.
157  1.56  0.  0.
158  1.57  0.  0.
159  1.58  0.  0.
160  1.59  0.  0.
161  1.60  0.  0.
162  1.61  0.  0.
163  1.62  0.  0.
164  1.63  0.  0.
165  1.64  0.  0.
166  1.65  0.  0.
167  1.66  0.  0.
168  1.67  0.  0.
169  1.68  0.  0.
170  1.69  0.  0.
171  1.70  0.  0.
172  1.71  0.  0.
173  1.72  0.  0.
174  1.73  0.  0.
175  1.74  0.  0.
176  1.75  0.  0.
177  1.76  0.  0.
178  1.77  0.  0.
179  1.78  0.  0.
180  1.79  0.  0.
181  1.80  0.  0.
182  1.81  0.  0.
183  1.82  0.  0.
184  1.83  0.  0.
185  1.84  0.  0.
186  1.85  0.  0.
187  1.86  0.  0.
188  1.87  0.  0.
189  1.88  0.  0.
190  1.89  0.  0.
191  1.90  0.  0.
192  1.91  0.  0.
193  1.92  0.  0.
194  1.93  0.  0.
195  1.94  0.  0.
196  1.95  0.  0.
197  1.96  0.  0.