Rf    ONCVPSP-4.0.1  r_core=   1.10045   1.10045   1.10045   1.20376
104.0000     44.0000      230612    zatom,zion,pspd
8      11   3     4   600     0    pspcod,pspxc,lmax,lloc,mmax,r2well
5.99000000  3.50000000  0.00000000    rchrg fchrg qchrg
3     4     3     2    nproj
3     1           extension_switch
4     4     3    nprojso
0                         1.9387453019587E+01 -4.7600612177088E+00  1.7643013286506E+00
1  0.0000000000000E+00 -7.6950916971796E-08 -9.4835369557345E-09 -2.5158830380123E-07
2  1.0000000000000E-02  1.7953127189310E-01  4.8461914969372E-02  6.4245466300378E-02
3  2.0000000000000E-02  3.5738474879143E-01  9.6844288347430E-02  1.2664018203799E-01
4  3.0000000000000E-02  5.3190789194948E-01  1.4506910490930E-01  1.8538668878878E-01
5  4.0000000000000E-02  7.0149804346028E-01  1.9306133806833E-01  2.3879227301673E-01
6  5.0000000000000E-02  8.6462580871475E-01  2.4075028659166E-01  2.8531680961484E-01
7  6.0000000000000E-02  1.0198566278417E+00  2.8807072945671E-01  3.2361536282465E-01
8  7.0000000000000E-02  1.1658700276411E+00  3.3496385001916E-01  3.5257410900123E-01
9  8.0000000000000E-02  1.3014761224731E+00  3.8137789014679E-01  3.7133839727884E-01
10  9.0000000000000E-02  1.4256290231776E+00  4.2726850607969E-01  3.7933205962088E-01
11  1.0000000000000E-01  1.5374369139757E+00  4.7259881005469E-01  3.7626740944913E-01
12  1.1000000000000E-01  1.6361686647004E+00  5.1733909467916E-01  3.6214571524101E-01
13  1.2000000000000E-01  1.7212569556401E+00  5.6146625013124E-01  3.3724828864665E-01
14  1.3000000000000E-01  1.7922980007141E+00  6.0496289696713E-01  3.0211867210770E-01
15  1.4000000000000E-01  1.8490480577058E+00  6.4781626911803E-01  2.5753673532582E-01
16  1.5000000000000E-01  1.8914170081527E+00  6.9001689208052E-01  2.0448578078528E-01
17  1.6000000000000E-01  1.9194593709368E+00  7.3155710992552E-01  1.4411400481292E-01
18  1.7000000000000E-01  1.9333631798429E+00  7.7242952122466E-01  7.7691853114594E-02
19  1.8000000000000E-01  1.9334372041893E+00  8.1262538806083E-01  6.5669412635560E-03
20  1.9000000000000E-01  1.9200970216033E+00  8.5213308378923E-01 -6.7881723419710E-02
21  2.0000000000000E-01  1.8938504623970E+00  8.9093664409015E-01 -1.4428848382135E-01
22  2.1000000000000E-01  1.8552829358142E+00  9.2901448215154E-01 -2.2134307273793E-01
23  2.2000000000000E-01  1.8050431204724E+00  9.6633832269043E-01 -2.9782841674550E-01
24  2.3000000000000E-01  1.7438294561028E+00  1.0028724012141E+00 -3.7265286126458E-01
25  2.4000000000000E-01  1.6723778133448E+00  1.0385729647688E+00 -4.4487571467526E-01
26  2.5000000000000E-01  1.5914506455747E+00  1.0733880988301E+00 -5.1372529055833E-01
27  2.6000000000000E-01  1.5018278446664E+00  1.1072578924179E+00 -5.7860893747097E-01
28  2.7000000000000E-01  1.4042994346400E+00  1.1401149404643E+00 -6.3911487276418E-01
29  2.8000000000000E-01  1.2996601469559E+00  1.1718851694427E+00 -6.9500596795155E-01
30  2.9000000000000E-01  1.1887058323811E+00  1.2024889597870E+00 -7.4620595512894E-01
31  3.0000000000000E-01  1.0722315804225E+00  1.2318425271811E+00 -7.9277882447468E-01
32  3.1000000000000E-01  9.5103134152365E-01  1.2598595148193E+00 -8.3490245043973E-01
33  3.2000000000000E-01  8.2589878245996E-01  1.2864527406130E+00 -8.7283770874199E-01
34  3.3000000000000E-01  6.9762905403382E-01  1.3115360373593E+00 -9.0689451934496E-01
35  3.4000000000000E-01  5.6702111409258E-01  1.3350261203039E+00 -9.3739636592890E-01
36  3.5000000000000E-01  4.3488022927883E-01  1.3568444154662E+00 -9.6464489591978E-01
37  3.6000000000000E-01  3.0202027629990E-01  1.3769187835709E+00 -9.8888619530454E-01
38  3.7000000000000E-01  1.6926547773337E-01  1.3951850783743E+00 -1.0102802600485E+00
39  3.8000000000000E-01  3.7451237664906E-02  1.4115884844381E+00 -1.0288750541314E+00
40  3.9000000000000E-01 -9.2576212634456E-02  1.4260845877230E+00 -1.0445863584522E+00
41  4.0000000000000E-01 -2.1996159121429E-01  1.4386401424281E+00 -1.0571843825391E+00
42  4.1000000000000E-01 -3.4384392856418E-01  1.4492335089047E+00 -1.0662878412375E+00
43  4.2000000000000E-01 -4.6336160656733E-01  1.4578547497765E+00 -1.0713659017771E+00
44  4.3000000000000E-01 -5.7765908293652E-01  1.4645053841422E+00 -1.0717480941774E+00
45  4.4000000000000E-01 -6.8589523003641E-01  1.4691978124339E+00 -1.0666419616938E+00
46  4.5000000000000E-01 -7.8725313827170E-01  1.4719544366833E+00 -1.0551579197837E+00
47  4.6000000000000E-01 -8.8095116060262E-01  1.4728065121546E+00 -1.0363405033716E+00
48  4.7000000000000E-01 -9.6625490909018E-01  1.4717927761208E+00 -1.0092049236556E+00
49  4.8000000000000E-01 -1.0424898591981E+00  1.4689579076440E+00 -9.7277763677023E-01
50  4.9000000000000E-01 -1.1090541749882E+00  1.4643508782654E+00 -9.2613945522341E-01
51  5.0000000000000E-01 -1.1654313399536E+00  1.4580232573186E+00 -8.6846961526219E-01
52  5.1000000000000E-01 -1.2112021650990E+00  1.4500275370158E+00 -7.9908915332218E-01
53  5.2000000000000E-01 -1.2460557485005E+00  1.4404155414830E+00 -7.1750194444687E-01
54  5.3000000000000E-01 -1.2697989788485E+00  1.4292369805915E+00 -6.2343181487552E-01
55  5.4000000000000E-01 -1.2823642087447E+00  1.4165382038738E+00 -5.1685425755476E-01
56  5.5000000000000E-01 -1.2838147705717E+00  1.4023612022518E+00 -3.9802144881420E-01
57  5.6000000000000E-01 -1.2743480668930E+00  1.3867428960144E+00 -2.6747948066832E-01
58  5.7000000000000E-01 -1.2542960364590E+00  1.3697147368209E+00 -1.2607697838715E-01
59  5.8000000000000E-01 -1.2241228735469E+00  1.3513026398550E+00  2.5035441973293E-02
60  5.9000000000000E-01 -1.1844199598549E+00  1.3315272500493E+00  1.8441511653953E-01
61  6.0000000000000E-01 -1.1358980516749E+00  1.3104045339701E+00  3.5034660356581E-01
62  6.1000000000000E-01 -1.0793768477039E+00  1.2879466769509E+00  5.2086989462497E-01
63  6.2000000000000E-01 -1.0157721418136E+00  1.2641632538097E+00  6.9381688162305E-01
64  6.3000000000000E-01 -9.4608083772823E-01  1.2390626313766E+00  8.6685511727389E-01
65  6.4000000000000E-01 -8.7136416645040E-01  1.2126535524528E+00  1.0375376618265E+00
66  6.5000000000000E-01 -7.9272950036776E-01  1.1849468440122E+00  1.2033576042683E+00
67  6.6000000000000E-01 -7.1131119857664E-01  1.1559571876741E+00  1.3618056886499E+00
68  6.7000000000000E-01 -6.2825094486199E-01  1.1257048878850E+00  1.5104293706467E+00
69  6.8000000000000E-01 -5.4467805222887E-01  1.0942175729204E+00  1.6468915792155E+00
70  6.9000000000000E-01 -4.6169020565507E-01  1.0615317657599E+00  1.7690274645439E+00
71  7.0000000000000E-01 -3.8033509810009E-01  1.0276942660254E+00  1.8748974757796E+00
72  7.1000000000000E-01 -3.0159338451393E-01  9.9276329033534E-01  1.9628352277546E+00
73  7.2000000000000E-01 -2.2636333586303E-01  9.5680932640585E-01  2.0314887807031E+00
74  7.3000000000000E-01 -1.5544752164096E-01  9.1991566572218E-01  2.0798541648631E+00
75  7.4000000000000E-01 -8.9541786940151E-02  8.8217859027853E-01  2.1073002253820E+00
76  7.5000000000000E-01 -2.9226721170436E-02  8.4370720035448E-01  2.1135841335167E+00
77  7.6000000000000E-01  2.5038257634954E-02  8.0462288215608E-01  2.0988571982438E+00
78  7.7000000000000E-01  7.2918153716950E-02  7.6505842597512E-01  2.0636609079828E+00
79  7.8000000000000E-01  1.1420300421602E-01  7.2515681688923E-01  2.0089134248885E+00
80  7.9000000000000E-01  1.4880594425352E-01  6.8506973053035E-01  1.9358870339032E+00
81  8.0000000000000E-01  1.7675888548023E-01  6.4495577570977E-01  1.8461773057064E+00
82  8.1000000000000E-01  1.9820602328959E-01  6.0497853336314E-01  1.7416649578566E+00
83  8.2000000000000E-01  2.1339543410042E-01  5.6530444708078E-01  1.6244715838518E+00
84  8.3000000000000E-01  2.2266905879471E-01  5.2610062418835E-01  1.4969105588904E+00
85  8.4000000000000E-01  2.2645139039872E-01  4.8753260777859E-01  1.3614345186767E+00
86  8.5000000000000E-01  2.2523719268862E-01  4.4976217918039E-01  1.2205808402390E+00
87  8.6000000000000E-01  2.1957857129657E-01  4.1294524707206E-01  1.0769165297809E+00
88  8.7000000000000E-01  2.1007170024681E-01  3.7722987386705E-01  9.3298384226104E-01
89  8.8000000000000E-01  1.9734347525437E-01  3.4275448225825E-01  7.9124782273595E-01
90  8.9000000000000E-01  1.8203832158146E-01  3.0964627510902E-01  6.5404677433002E-01
91  9.0000000000000E-01  1.6480533014560E-01  2.7801989049547E-01  5.2354642747307E-01
92  9.1000000000000E-01  1.4628583262507E-01  2.4797630095908E-01  4.0169831673731E-01
93  9.2000000000000E-01  1.2710145648975E-01  2.1960195229069E-01  2.9020257341011E-01
94  9.3000000000000E-01  1.0784262639617E-01  1.9296812283919E-01  1.9047502309143E-01
95  9.4000000000000E-01  8.9057401541054E-02  1.6813046984080E-01  1.0361814799275E-01
96  9.5000000000000E-01  7.1240461780565E-02  1.4512871503236E-01  3.0395143646694E-02
97  9.6000000000000E-01  5.4821980943317E-02  1.2398640826206E-01 -2.8794020327176E-02
98  9.7000000000000E-01  4.0156056117122E-02  1.0471069535467E-01 -7.3935925657713E-02
99  9.8000000000000E-01  2.7508298902012E-02  8.7292005495632E-02 -1.0542807757641E-01
100  9.9000000000000E-01  1.7042133965634E-02  7.1703563555624E-02 -1.2410624876851E-01
101  1.0000000000000E+00  8.8033601151743E-03  5.7900630833640E-02 -1.3127664446844E-01
102  1.0100000000000E+00  2.7063973410630E-03  4.5819723764327E-02 -1.2873532734658E-01
103  1.0200000000000E+00 -1.4366181990863E-03  3.5381889788496E-02 -1.1857528131529E-01
104  1.0300000000000E+00 -3.8698646319421E-03  2.6498962707355E-02 -1.0293385752846E-01
105  1.0400000000000E+00 -4.8791350158990E-03  1.9077670260602E-02 -8.3913301633004E-02
106  1.0500000000000E+00 -4.7935560266495E-03  1.3017699255158E-02 -6.3557419817243E-02
107  1.0600000000000E+00 -4.0052192086320E-03  8.1982092570356E-03 -4.3884985629549E-02
108  1.0700000000000E+00 -2.8073302226865E-03  4.5500084853472E-03 -2.6433892954015E-02
109  1.0800000000000E+00 -1.5126490443251E-03  2.0098452332926E-03 -1.2554653908533E-02
110  1.0900000000000E+00 -4.5713848255134E-04  5.1162769010719E-04 -3.4051606949130E-03
111  1.1000000000000E+00 -4.5927738873748E-06  4.4011533475976E-06 -3.0830541635115E-05
112  1.1100000000000E+00 -3.0356842389049E-06  2.9723942064067E-06 -2.0831165813878E-05
113  1.1200000000000E+00  8.3641116628181E-08 -8.7681191678109E-08  5.9846855195763E-07
114  1.13  0.  0.  0.
115  1.14  0.  0.  0.
116  1.15  0.  0.  0.
117  1.16  0.  0.  0.
118  1.17  0.  0.  0.
119  1.18  0.  0.  0.
120  1.19  0.  0.  0.
121  1.20  0.  0.  0.
122  1.21  0.  0.  0.
123  1.22  0.  0.  0.
124  1.23  0.  0.  0.
125  1.24  0.  0.  0.
126  1.25  0.  0.  0.
127  1.26  0.  0.  0.
128  1.27  0.  0.  0.
129  1.28  0.  0.  0.
130  1.29  0.  0.  0.
131  1.30  0.  0.  0.
132  1.31  0.  0.  0.
133  1.32  0.  0.  0.
134  1.33  0.  0.  0.
135  1.34  0.  0.  0.
136  1.35  0.  0.  0.
137  1.36  0.  0.  0.
138  1.37  0.  0.  0.
139  1.38  0.  0.  0.
140  1.39  0.  0.  0.
141  1.40  0.  0.  0.
142  1.41  0.  0.  0.
143  1.42  0.  0.  0.
144  1.43  0.  0.  0.
145  1.44  0.  0.  0.
146  1.45  0.  0.  0.
147  1.46  0.  0.  0.
148  1.47  0.  0.  0.
149  1.48  0.  0.  0.
150  1.49  0.  0.  0.
151  1.50  0.  0.  0.
152  1.51  0.  0.  0.
153  1.52  0.  0.  0.
154  1.53  0.  0.  0.
155  1.54  0.  0.  0.
156  1.55  0.  0.  0.
157  1.56  0.  0.  0.
158  1.57  0.  0.  0.
159  1.58  0.  0.  0.
160  1.59  0.  0.  0.
161  1.60  0.  0.  0.
162  1.61  0.  0.  0.
163  1.62  0.  0.  0.
164  1.63  0.  0.  0.
165  1.64  0.  0.  0.
166  1.65  0.  0.  0.
167  1.66  0.  0.  0.
168  1.67  0.  0.  0.
169  1.68  0.  0.  0.
170  1.69  0.  0.  0.
171  1.70  0.  0.  0.
172  1.71  0.  0.  0.
173  1.72  0.  0.  0.
174  1.73  0.  0.  0.
175  1.74  0.  0.  0.
176  1.75  0.  0.  0.
177  1.76  0.  0.  0.
178  1.77  0.  0.  0.
179  1.78  0.  0.  0.
180  1.79  0.  0.  0.
181  1.80  0.  0.  0.
182  1.81  0.  0.  0.
183  1.82  0.  0.  0.
184  1.83  0.  0.  0.
185  1.84  0.  0.  0.
186  1.85  0.  0.  0.
187  1.86  0.  0.  0.
188  1.87  0.  0.  0.
189  1.88  0.  0.  0.
190  1.89  0.  0.  0.
191  1.90  0.  0.  0.
192  1.91  0.  0.  0.
193  1.92  0.  0.  0.
194  1.93  0.  0.  0.
195  1.94  0.  0.  0.
196  1.95  0.  0.  0.
197  1.96  0.  0.  0.
198  1.97  0.  0.  0.
199  1.98  0.  0.  0.
200  1.99  0.  0.  0.
201  2.00  0.  0.  0.
202  2.01  0.  0.  0.
203  2.02  0.  0.  0.
204  2.03  0.  0.  0.
205  2.04  0.  0.  0.
206  2.05  0.  0.  0.
207  2.06  0.  0.  0.
208  2.07  0.  0.  0.
209  2.08  0.  0.  0.
210  2.09  0.  0.  0.
211  2.10  0.  0.  0.
212  2.11  0.  0.  0.
213  2.12  0.  0.  0.
214  2.13  0.  0.  0.
215  2.14  0.  0.  0.
216  2.15  0.  0.  0.
217  2.16  0.  0.  0.
218  2.17  0.  0.  0.
219  2.18  0.  0.  0.
220  2.19  0.  0.  0.
221  2.20  0.  0.  0.
222  2.21  0.  0.  0.
223  2.22  0.  0.  0.
224  2.23  0.  0.  0.
225  2.24  0.  0.  0.
226  2.25  0.  0.  0.
227  2.26  0.  0.  0.
228  2.27  0.  0.  0.
229  2.28  0.  0.  0.
230  2.29  0.  0.  0.
231  2.30  0.  0.  0.
232  2.31  0.  0.  0.
233  2.32  0.  0.  0.
234  2.33  0.  0.  0.
235  2.34  0.  0.  0.
236  2.35  0.  0.  0.
237  2.36  0.  0.  0.
238  2.37  0.  0.  0.
239  2.38  0.  0.  0.
240  2.39  0.  0.  0.
241  2.40  0.  0.  0.
242  2.41  0.  0.  0.
243  2.42  0.  0.  0.
244  2.43  0.  0.  0.
245  2.44  0.  0.  0.
246  2.45  0.  0.  0.
247  2.46  0.  0.  0.
248  2.47  0.  0.  0.
249  2.48  0.  0.  0.
250  2.49  0.  0.  0.
251  2.50  0.  0.  0.
252  2.51  0.  0.  0.
253  2.52  0.  0.  0.
254  2.53  0.  0.  0.
255  2.54  0.  0.  0.
256  2.55  0.  0.  0.
257  2.56  0.  0.  0.
258  2.57  0.  0.  0.
259  2.58  0.  0.  0.
260  2.59  0.  0.  0.
261  2.60  0.  0.  0.
262  2.61  0.  0.  0.
263  2.62  0.  0.  0.
264  2.63  0.  0.  0.
265  2.64  0.  0.  0.
266  2.65  0.  0.  0.
267  2.66  0.  0.  0.
268  2.67  0.  0.  0.
269  2.68  0.  0.  0.
270  2.69  0.  0.  0.
271  2.70  0.  0.  0.
272  2.71  0.  0.  0.
273  2.72  0.  0.  0.
274  2.73  0.  0.  0.
275  2.74  0.  0.  0.
276  2.75  0.  0.  0.
277  2.76  0.  0.  0.
278  2.77  0.  0.  0.
279  2.78  0.  0.  0.
280  2.79  0.  0.  0.
281  2.80  0.  0.  0.
282  2.81  0.  0.  0.
283  2.82  0.  0.  0.
284  2.83  0.  0.  0.
285  2.84  0.  0.  0.
286  2.85  0.  0.  0.
287  2.86  0.  0.  0.
288  2.87  0.  0.  0.
289  2.88  0.  0.  0.
290  2.89  0.  0.  0.
291  2.90  0.  0.  0.
292  2.91  0.  0.  0.
293  2.92  0.  0.  0.
294  2.93  0.  0.  0.
295  2.94  0.  0.  0.
296  2.95  0.  0.  0.
297  2.96  0.  0.  0.
298  2.97  0.  0.  0.
299  2.98  0.  0.  0.
300  2.99  0.  0.  0.
301  3.00  0.  0.  0.
302  3.01  0.  0.  0.
303  3.02  0.  0.  0.
304  3.03  0.  0.  0.
305  3.04  0.  0.  0.
306  3.05  0.  0.  0.
307  3.06  0.  0.  0.
308  3.07  0.  0.  0.
309  3.08  0.  0.  0.
310  3.09  0.  0.  0.
311  3.10  0.  0.  0.
312  3.11  0.  0.  0.
313  3.12  0.  0.  0.
314  3.13  0.  0.  0.
315  3.14  0.  0.  0.
316  3.15  0.  0.  0.
317  3.16  0.  0.  0.
318  3.17  0.  0.  0.
319  3.18  0.  0.  0.
320  3.19  0.  0.  0.
321  3.20  0.  0.  0.
322  3.21  0.  0.  0.
323  3.22  0.  0.  0.
324  3.23  0.  0.  0.
325  3.24  0.  0.  0.
326  3.25  0.  0.  0.
327  3.26  0.  0.  0.
328  3.27  0.  0.  0.
329  3.28  0.  0.  0.
330  3.29  0.  0.  0.
331  3.30  0.  0.  0.
332  3.31  0.  0.  0.
333  3.32  0.  0.  0.
334  3.33  0.  0.  0.
335  3.34  0.  0.  0.
336  3.35  0.  0.  0.
337  3.36  0.  0.  0.
338  3.37  0.  0.  0.
339  3.38  0.  0.  0.
340  3.39  0.  0.  0.
341  3.40  0.  0.  0.
342  3.41  0.  0.  0.
343  3.42  0.  0.  0.
344  3.43  0.  0.  0.
345  3.44  0.  0.  0.
346  3.45  0.  0.  0.
347  3.46  0.  0.  0.
348  3.47  0.  0.  0.
349  3.48  0.  0.  0.
350  3.49  0.  0.  0.
351  3.50  0.  0.  0.
352  3.51  0.  0.  0.
353  3.52  0.  0.  0.
354  3.53  0.  0.  0.
355  3.54  0.  0.  0.
356  3.55  0.  0.  0.
357  3.56  0.  0.  0.
358  3.57  0.  0.  0.
359  3.58  0.  0.  0.
360  3.59  0.  0.  0.
361  3.60  0.  0.  0.
362  3.61  0.  0.  0.
363  3.62  0.  0.  0.
364  3.63  0.  0.  0.
365  3.64  0.  0.  0.
366  3.65  0.  0.  0.
367  3.66  0.  0.  0.
368  3.67  0.  0.  0.
369  3.68  0.  0.  0.
370  3.69  0.  0.  0.
371  3.70  0.  0.  0.
372  3.71  0.  0.  0.
373  3.72  0.  0.  0.
374  3.73  0.  0.  0.
375  3.74  0.  0.  0.
376  3.75  0.  0.  0.
377  3.76  0.  0.  0.
378  3.77  0.  0.  0.
379  3.78  0.  0.  0.
380  3.79  0.  0.  0.
381  3.80  0.  0.  0.
382  3.81  0.  0.  0.
383  3.82  0.  0.  0.
384  3.83  0.  0.  0.
385  3.84  0.  0.  0.
386  3.85  0.  0.  0.
387  3.86  0.  0.  0.
388  3.87  0.  0.  0.
389  3.88  0.  0.  0.
390  3.89  0.  0.  0.
391  3.90  0.  0.  0.
392  3.91  0.  0.  0.
393  3.92  0.  0.  0.
394  3.93  0.  0.  0.
395  3.94  0.  0.  0.
396  3.95  0.  0.  0.
397  3.96  0.  0.  0.
398  3.97  0.  0.  0.
399  3.98  0.  0.  0.
400  3.99  0.  0.  0.
401  4.00  0.  0.  0.
402  4.01  0.  0.  0.
403  4.02  0.  0.  0.
404  4.03  0.  0.  0.
405  4.04  0.  0.  0.
406  4.05  0.  0.  0.
407  4.06  0.  0.  0.
408  4.07  0.  0.  0.
409  4.08  0.  0.  0.
410  4.09  0.  0.  0.
411  4.10  0.  0.  0.
412  4.11  0.  0.  0.
413  4.12  0.  0.  0.
414  4.13  0.  0.  0.
415  4.14  0.  0.  0.
416  4.15  0.  0.  0.
417  4.16  0.  0.  0.
418  4.17  0.  0.  0.
419  4.18  0.  0.  0.
420  4.19  0.  0.  0.
421  4.20  0.  0.  0.
422  4.21  0.  0.  0.
423  4.22  0.  0.  0.
424  4.23  0.  0.  0.
425  4.24  0.  0.  0.
426  4.25  0.  0.  0.
427  4.26  0.  0.  0.
428  4.27  0.  0.  0.
429  4.28  0.  0.  0.
430  4.29  0.  0.  0.
431  4.30  0.  0.  0.
432  4.31  0.  0.  0.
433  4.32  0.  0.  0.
434  4.33  0.  0.  0.
435  4.34  0.  0.  0.
436  4.35  0.  0.  0.
437  4.36  0.  0.  0.
438  4.37  0.  0.  0.
439  4.38  0.  0.  0.
440  4.39  0.  0.  0.
441  4.40  0.  0.  0.
442  4.41  0.  0.  0.
443  4.42  0.  0.  0.
444  4.43  0.  0.  0.
445  4.44  0.  0.  0.
446  4.45  0.  0.  0.
447  4.46  0.  0.  0.
448  4.47  0.  0.  0.
449  4.48  0.  0.  0.
450  4.49  0.  0.  0.
451  4.50  0.  0.  0.
452  4.51  0.  0.  0.
453  4.52  0.  0.  0.
454  4.53  0.  0.  0.
455  4.54  0.  0.  0.
456  4.55  0.  0.  0.
457  4.56  0.  0.  0.
458  4.57  0.  0.  0.
459  4.58  0.  0.  0.
460  4.59  0.  0.  0.
461  4.60  0.  0.  0.
462  4.61  0.  0.  0.
463  4.62  0.  0.  0.
464  4.63  0.  0.  0.
465  4.64  0.  0.  0.
466  4.65  0.  0.  0.
467  4.66  0.  0.  0.
468  4.67  0.  0.  0.
469  4.68  0.  0.  0.
470  4.69  0.  0.  0.
471  4.70  0.  0.  0.
472  4.71  0.  0.  0.
473  4.72  0.  0.  0.
474  4.73  0.  0.  0.
475  4.74  0.  0.  0.
476  4.75  0.  0.  0.
477  4.76  0.  0.  0.
478  4.77  0.  0.  0.
479  4.78  0.  0.  0.
480  4.79  0.  0.  0.
481  4.80  0.  0.  0.
482  4.81  0.  0.  0.
483  4.82  0.  0.  0.
484  4.83  0.  0.  0.
485  4.84  0.  0.  0.
486  4.85  0.  0.  0.
487  4.86  0.  0.  0.
488  4.87  0.  0.  0.
489  4.88  0.  0.  0.
490  4.89  0.  0.  0.
491  4.90  0.  0.  0.
492  4.91  0.  0.  0.
493  4.92  0.  0.  0.
494  4.93  0.  0.  0.
495  4.94  0.  0.  0.
496  4.95  0.  0.  0.
497  4.96  0.  0.  0.
498  4.97  0.  0.  0.
499  4.98  0.  0.  0.
500  4.99  0.  0.  0.
501  5.00  0.  0.  0.
502  5.01  0.  0.  0.
503  5.02  0.  0.  0.
504  5.03  0.  0.  0.
505  5.04  0.  0.  0.
506  5.05  0.  0.  0.
507  5.06  0.  0.  0.
508  5.07  0.  0.  0.
509  5.08  0.  0.  0.
510  5.09  0.  0.  0.
511  5.10  0.  0.  0.
512  5.11  0.  0.  0.
513  5.12  0.  0.  0.
514  5.13  0.  0.  0.
515  5.14  0.  0.  0.
516  5.15  0.  0.  0.
517  5.16  0.  0.  0.
518  5.17  0.  0.  0.
519  5.18  0.  0.  0.
520  5.19  0.  0.  0.
521  5.20  0.  0.  0.
522  5.21  0.  0.  0.
523  5.22  0.  0.  0.
524  5.23  0.  0.  0.
525  5.24  0.  0.  0.
526  5.25  0.  0.  0.
527  5.26  0.  0.  0.
528  5.27  0.  0.  0.
529  5.28  0.  0.  0.
530  5.29  0.  0.  0.
531  5.30  0.  0.  0.
532  5.31  0.  0.  0.
533  5.32  0.  0.  0.
534  5.33  0.  0.  0.
535  5.34  0.  0.  0.
536  5.35  0.  0.  0.
537  5.36  0.  0.  0.
538  5.37  0.  0.  0.
539  5.38  0.  0.  0.
540  5.39  0.  0.  0.
541  5.40  0.  0.  0.
542  5.41  0.  0.  0.
543  5.42  0.  0.  0.
544  5.43  0.  0.  0.
545  5.44  0.  0.  0.
546  5.45  0.  0.  0.
547  5.46  0.  0.  0.
548  5.47  0.  0.  0.
549  5.48  0.  0.  0.
550  5.49  0.  0.  0.
551  5.50  0.  0.  0.
552  5.51  0.  0.  0.
553  5.52  0.  0.  0.
554  5.53  0.  0.  0.
555  5.54  0.  0.  0.
556  5.55  0.  0.  0.
557  5.56  0.  0.  0.
558  5.57  0.  0.  0.
559  5.58  0.  0.  0.
560  5.59  0.  0.  0.
561  5.60  0.  0.  0.
562  5.61  0.  0.  0.
563  5.62  0.  0.  0.
564  5.63  0.  0.  0.
565  5.64  0.  0.  0.
566  5.65  0.  0.  0.
567  5.66  0.  0.  0.
568  5.67  0.  0.  0.
569  5.68  0.  0.  0.
570  5.69  0.  0.  0.
571  5.70  0.  0.  0.
572  5.71  0.  0.  0.
573  5.72  0.  0.  0.
574  5.73  0.  0.  0.
575  5.74  0.  0.  0.
576  5.75  0.  0.  0.
577  5.76  0.  0.  0.
578  5.77  0.  0.  0.
579  5.78  0.  0.  0.
580  5.79  0.  0.  0.
581  5.80  0.  0.  0.
582  5.81  0.  0.  0.
583  5.82  0.  0.  0.
584  5.83  0.  0.  0.
585  5.84  0.  0.  0.
586  5.85  0.  0.  0.
587  5.86  0.  0.  0.
588  5.87  0.  0.  0.
589  5.88  0.  0.  0.
590  5.89  0.  0.  0.
591  5.90  0.  0.  0.
592  5.91  0.  0.  0.
593  5.92  0.  0.  0.
594  5.93  0.  0.  0.
595  5.94  0.  0.  0.
596  5.95  0.  0.  0.
597  5.96  0.  0.  0.
598  5.97  0.  0.  0.
599  5.98  0.  0.  0.
600  5.99  0.  0.  0.
1                        -4.2905224600568E+00  3.9060536285064E+00  3.7042369340918E-01 -1.2593666882036E-02
1  0.0000000000000E+00  6.2264233213760E-09  9.7559165551653E-08 -3.1575851788812E-07 -1.3291657163794E-08
2  1.0000000000000E-02  2.0080792844296E-03 -2.2622671984378E-03 -9.0945324786691E-03  5.3623524518172E-03
3  2.0000000000000E-02  8.0189277176530E-03 -9.0647470007249E-03 -3.6142554029448E-02  2.1362394334812E-02
4  3.0000000000000E-02  1.7992547804172E-02 -2.0452892115352E-02 -8.0444007696978E-02  4.7739840057615E-02
5  4.0000000000000E-02  3.1862841966778E-02 -3.6497255930671E-02 -1.4085414726905E-01  8.4063436483283E-02
6  5.0000000000000E-02  4.9538445024359E-02 -5.7285939479303E-02 -2.1581579754339E-01  1.2973486573065E-01
7  6.0000000000000E-02  7.0903860427061E-02 -8.2914503640506E-02 -3.0340302230200E-01  1.8399433978244E-01
8  7.0000000000000E-02  9.5820872289676E-02 -1.1347380817390E-01 -4.0137477056340E-01  2.4592800305942E-01
9  8.0000000000000E-02  1.2413019903774E-01 -1.4903633673704E-01 -5.0723675592471E-01  3.1447727241161E-01
10  9.0000000000000E-02  1.5565334947432E-01 -1.8964164087370E-01 -6.1830957241868E-01  3.8845024381490E-01
11  1.0000000000000E-01  1.9019463845392E-01 -2.3528158293705E-01 -7.3180087214283E-01  4.6653527998082E-01
12  1.1000000000000E-01  2.2754331721973E-01 -2.8588607603409E-01 -8.4487933094791E-01  5.4731686245308E-01
13  1.2000000000000E-01  2.6747577286988E-01 -3.4131000756863E-01 -9.5474811153104E-01  6.2929374579127E-01
14  1.3000000000000E-01  3.0975775234906E-01 -4.0132199229576E-01 -1.0587155979847E+00  7.1089939121258E-01
15  1.4000000000000E-01  3.5414656873981E-01 -4.6559553268762E-01 -1.1542613186436E+00  7.9052458450505E-01
16  1.5000000000000E-01  4.0039325131527E-01 -5.3370307170943E-01 -1.2390951883685E+00  8.6654206083241E-01
17  1.6000000000000E-01  4.4824460562904E-01 -6.0511330971304E-01 -1.3112084779067E+00  9.3733287056784E-01
18  1.7000000000000E-01  4.9744515562752E-01 -6.7919202783350E-01 -1.3689152450528E+00  1.0013141293987E+00
19  1.8000000000000E-01  5.4773894611517E-01 -7.5520652044735E-01 -1.4108833265404E+00  1.0569677068492E+00
20  1.9000000000000E-01  5.9887119060098E-01 -8.3233359477830E-01 -1.4361543762095E+00  1.1028693244618E+00
21  2.0000000000000E-01  6.5058975631340E-01 -9.0967095265806E-01 -1.4441528286318E+00  1.1377174625042E+00
22  2.1000000000000E-01  7.0264648470336E-01 -9.8625163373874E-01 -1.4346840526411E+00  1.1603614163505E+00
23  2.2000000000000E-01  7.5479835179060E-01 -1.0610610767567E+00 -1.4079223213020E+00  1.1698278042917E+00
24  2.3000000000000E-01  8.0680847800214E-01 -1.1330562508539E+00 -1.3643895501673E+00  1.1653448105574E+00
25  2.4000000000000E-01  8.5844700149976E-01 -1.2011862267845E+00 -1.3049260323557E+00  1.1463634530667E+00
26  2.5000000000000E-01  9.0949183223651E-01 -1.2644135014356E+00 -1.2306546173790E+00  1.1125751963116E+00
27  2.6000000000000E-01  9.5972930601551E-01 -1.3217353607362E+00 -1.1429399336681E+00  1.0639252862293E+00
28  2.7000000000000E-01  1.0089547586003E+00 -1.3722045668039E+00 -1.0433443381452E+00  1.0006212653560E+00
29  2.8000000000000E-01  1.0569730394563E+00 -1.4149486849364E+00 -9.3358228866005E-01  9.2313623133166E-01
30  2.9000000000000E-01  1.1035989830560E+00 -1.4491874234359E+00 -8.1547477834216E-01  8.3220652729915E-01
31  3.0000000000000E-01  1.1486578529842E+00 -1.4742474417293E+00 -6.9090534945970E-01  7.2882369534207E-01
32  3.1000000000000E-01  1.1919857704990E+00 -1.4895741862494E+00 -5.6177902540723E-01  6.1422067945593E-01
33  3.2000000000000E-01  1.2334301349656E+00 -1.4947404345953E+00 -4.2998527243781E-01  4.8985242760576E-01
34  3.3000000000000E-01  1.2728500389133E+00 -1.4894513614207E+00 -2.9736583906009E-01  3.5737120768294E-01
35  3.4000000000000E-01  1.3101166756453E+00 -1.4735460786299E+00 -1.6568803334472E-01  2.1859711385918E-01
36  3.5000000000000E-01  1.3451137326277E+00 -1.4469957418770E+00 -3.6623700237618E-02  7.5484392114594E-02
37  3.6000000000000E-01  1.3777377595568E+00 -1.4098984491409E+00  8.8266133901169E-02 -6.9915649055752E-02
38  3.7000000000000E-01  1.4078984963118E+00 -1.3624712796044E+00  2.0754126055518E-01 -2.1549425982527E-01
39  3.8000000000000E-01  1.4355191431630E+00 -1.3050399270142E+00  3.1988749230325E-01 -3.5912642720061E-01
40  3.9000000000000E-01  1.4605365537964E+00 -1.2380264666452E+00  4.2411783939563E-01 -4.9871257206219E-01
41  4.0000000000000E-01  1.4829013310851E+00 -1.1619358553402E+00  5.1917058903658E-01 -6.3221969545452E-01
42  4.1000000000000E-01  1.5025778061528E+00 -1.0773417972907E+00  6.0410532097862E-01 -7.5772090644303E-01
43  4.2000000000000E-01  1.5195438831599E+00 -9.8487261286824E-01  6.7809793726069E-01 -8.7343229988253E-01
44  4.3000000000000E-01  1.5337907353649E+00 -8.8519772372234E-01  7.4043576675571E-01 -9.7774622196839E-01
45  4.4000000000000E-01  1.5453223422666E+00 -7.7901531557789E-01  7.9051372801069E-01 -1.0692600626416E+00
46  4.5000000000000E-01  1.5541548628588E+00 -6.6704166292916E-01  8.2783240081672E-01 -1.1467998438241E+00
47  4.6000000000000E-01  1.5603158460305E+00 -5.5000250047978E-01  8.5199867472923E-01 -1.2094380270107E+00
48  4.7000000000000E-01  1.5638432856594E+00 -4.2862670903219E-01  8.6272942035610E-01 -1.2565051379407E+00
49  4.8000000000000E-01  1.5647845346981E+00 -3.0364245369898E-01  8.5985837751831E-01 -1.2875949941574E+00
50  4.9000000000000E-01  1.5631950992328E+00 -1.7577577549865E-01  8.4334618567161E-01 -1.3025635168817E+00
51  5.0000000000000E-01  1.5591373397911E+00 -4.5751499676702E-02  8.1329320948912E-01 -1.3015213051157E+00
52  5.1000000000000E-01  1.5526791127756E+00  8.5703808359334E-02  7.6995454980049E-01 -1.2848203404425E+00
53  5.2000000000000E-01  1.5438923895153E+00  2.1785722974914E-01  7.1375639050009E-01 -1.2530353689657E+00
54  5.3000000000000E-01  1.5328518937955E+00  3.4996371598815E-01  6.4531262808666E-01 -1.2069406659696E+00
55  5.4000000000000E-01  1.5196338006269E+00  4.8125972652913E-01  5.6544057332260E-01 -1.1474830235268E+00
56  5.5000000000000E-01  1.5043145392908E+00  6.1095691299046E-01  4.7517441339868E-01 -1.0757519066324E+00
57  5.6000000000000E-01  1.4869697422346E+00  7.3823650966297E-01  3.7577508492952E-01 -9.9294779569001E-01
58  5.7000000000000E-01  1.4676733781707E+00  8.6224508569789E-01  2.6873523746302E-01 -9.0034976969362E-01
59  5.8000000000000E-01  1.4464971027795E+00  9.8209227820254E-01  1.5577806542664E-01 -7.9928338387010E-01
60  5.9000000000000E-01  1.4235098538544E+00  1.0968510581361E+00  3.8848952067147E-02 -6.9108985786085E-01
61  6.0000000000000E-01  1.3987777097316E+00  1.2055609843924E+00 -7.9900902561533E-02 -5.7709751704295E-01
62  6.1000000000000E-01  1.3723640206756E+00  1.3072347790576E+00 -1.9813941350779E-01 -4.5859632298818E-01
63  6.2000000000000E-01  1.3443298128493E+00  1.4008684129967E+00 -3.1338731721592E-01 -3.3681619319939E-01
64  6.3000000000000E-01  1.3147344539417E+00  1.4854547311217E+00 -4.2306050407700E-01 -2.1290965015532E-01
65  6.4000000000000E-01  1.2836365588626E+00  1.5600004772135E+00 -5.2452044749545E-01 -8.7939161249122E-02
66  6.5000000000000E-01  1.2510951035392E+00  1.6235464058995E+00 -6.1513181458311E-01  3.7130658918376E-02
67  6.6000000000000E-01  1.2171707052105E+00  1.6751900014969E+00 -6.9232597105576E-01  1.6143600710298E-01
68  6.7000000000000E-01  1.1819270191038E+00  1.7141101671849E+00 -7.5366874921956E-01  2.8421222591502E-01
69  6.8000000000000E-01  1.1454321943942E+00  1.7395931103204E+00 -7.9693054871648E-01  4.0478791105499E-01
70  6.9000000000000E-01  1.1077603272263E+00  1.7510585371215E+00 -8.2015659928952E-01  5.2257535272397E-01
71  7.0000000000000E-01  1.0689928456042E+00  1.7480851880284E+00 -8.2173504575391E-01  6.3705801375126E-01
72  7.1000000000000E-01  1.0292197603464E+00  1.7304346983805E+00 -8.0046042762057E-01  7.4777585904623E-01
73  7.2000000000000E-01  9.8854071817732E-01  1.6980727608995E+00 -7.5559012654748E-01  8.5430942948288E-01
74  7.3000000000000E-01  9.4706579743790E-01  1.6511865986950E+00 -6.8689144780070E-01  9.5626359506849E-01
75  7.4000000000000E-01  9.0491599376717E-01  1.5901978303708E+00 -5.9467718741629E-01  1.0532519253649E+00
76  7.5000000000000E-01  8.6222335229770E-01  1.5157699209609E+00 -4.7982781131938E-01  1.1448825793144E+00
77  7.6000000000000E-01  8.1913071415030E-01  1.4288095609218E+00 -3.4379872918136E-01  1.2307465430255E+00
78  7.7000000000000E-01  7.7579105797555E-01  1.3304614957012E+00 -1.8861157361614E-01  1.3104089354206E+00
79  7.8000000000000E-01  7.3236643154200E-01  1.2220965345849E+00 -1.6828880635794E-02  1.3834039620501E+00
80  7.9000000000000E-01  6.8902648342597E-01  1.1052926924318E+00  1.6848790645144E-01  1.4492339322575E+00
81  8.0000000000000E-01  6.4594662017188E-01  9.8180965339196E-01  3.6383663905448E-01  1.5073725707715E+00
82  8.1000000000000E-01  6.0330582929329E-01  8.5355698295249E-01  5.6534785015300E-01  1.5572726591000E+00