Ds    ONCVPSP-4.0.1  r_core=   1.10457   1.10457   1.10457   1.14493
110.0000     50.0000      230612    zatom,zion,pspd
8      11   3     4   600     0    pspcod,pspxc,lmax,lloc,mmax,r2well
5.99000000  3.80000000  0.00000000    rchrg fchrg qchrg
3     4     2     2    nproj
3     1           extension_switch
4     4     3    nprojso
0                         1.3458089556473E+01 -1.1408144296763E+01  1.5753391910316E+00
1  0.0000000000000E+00  6.9347049436175E-08 -2.4790454133949E-09  1.2739593449607E-07
2  1.0000000000000E-02  1.6501439176131E-01  7.9735116729827E-02  2.6731177154562E-02
3  2.0000000000000E-02  3.2858251770244E-01  1.5925282806515E-01  5.2818443776349E-02
4  3.0000000000000E-02  4.8926736508108E-01  2.3833690091507E-01  7.7620993453701E-02
5  4.0000000000000E-02  6.4565064159570E-01  3.1677342832846E-01  1.0050469030806E-01
6  5.0000000000000E-02  7.9634265109129E-01  3.9435194709814E-01  1.2084652270967E-01
7  6.0000000000000E-02  9.3999273240534E-01  4.7086650273973E-01  1.3804029699877E-01
8  7.0000000000000E-02  1.0753003601825E+00  5.4611664742527E-01  1.5150382093587E-01
9  8.0000000000000E-02  1.2010269371390E+00  6.1990835893042E-01  1.6068769920865E-01
10  9.0000000000000E-02  1.3160082286900E+00  6.9205487151907E-01  1.6508571929251E-01
11  1.0000000000000E-01  1.4191673078194E+00  7.6237741280050E-01  1.6424665419287E-01
12  1.1000000000000E-01  1.5095277956889E+00  8.3070584380374E-01  1.5778715859381E-01
13  1.2000000000000E-01  1.5862271069063E+00  8.9687920266642E-01  1.4540529629263E-01
14  1.3000000000000E-01  1.6485293425808E+00  9.6074615528291E-01  1.2689411864799E-01
15  1.4000000000000E-01  1.6958374237413E+00  1.0221653588604E+00  1.0215462426697E-01
16  1.5000000000000E-01  1.7277040261195E+00  1.0810057464727E+00  7.1207376018856E-02
17  1.6000000000000E-01  1.7438408674815E+00  1.1371467422852E+00  3.4202037549109E-02
18  1.7000000000000E-01  1.7441259122867E+00  1.1904784180847E+00 -8.5758795104323E-03
19  1.8000000000000E-01  1.7286080959010E+00  1.2409016020536E+00 -5.6701694118045E-02
20  1.9000000000000E-01  1.6975092310392E+00  1.2883279503779E+00 -1.0961218309765E-01
21  2.0000000000000E-01  1.6512228404763E+00  1.3326799913118E+00 -1.6661052961814E-01
22  2.1000000000000E-01  1.5903097590765E+00  1.3738911498047E+00 -2.2687578472218E-01
23  2.2000000000000E-01  1.5154904605579E+00  1.4119057588257E+00 -2.8947683129453E-01
24  2.3000000000000E-01  1.4276341850311E+00  1.4466790612203E+00 -3.5339062553635E-01
25  2.4000000000000E-01  1.3277450665390E+00  1.4781772034416E+00 -4.1752427571743E-01
26  2.5000000000000E-01  1.2169455795990E+00  1.5063772199602E+00 -4.8074031304202E-01
27  2.6000000000000E-01  1.0964577341381E+00  1.5312670047354E+00 -5.4188432605347E-01
28  2.7000000000000E-01  9.6758254353991E-01  1.5528452639621E+00 -5.9981397854634E-01
29  2.8000000000000E-01  8.3167836571406E-01  1.5711214425367E+00 -6.5342832057011E-01
30  2.9000000000000E-01  6.9013876795953E-01  1.5861156154234E+00 -7.0169624011301E-01
31  3.0000000000000E-01  5.4437058978827E-01  1.5978583344400E+00 -7.4368289452635E-01
32  3.1000000000000E-01  3.9577287198291E-01  1.6063904209780E+00 -7.7857300821883E-01
33  3.2000000000000E-01  2.4571728451135E-01  1.6117626958541E+00 -8.0569002639864E-01
34  3.3000000000000E-01  9.5530621507772E-02  1.6140356388360E+00 -8.2451027063155E-01
35  3.4000000000000E-01 -5.3520159243921E-02  1.6132789723656E+00 -8.3467144494751E-01
36  3.5000000000000E-01 -2.0023998827739E-01  1.6095711665140E+00 -8.3597508286040E-01
37  3.6000000000000E-01 -3.4351459490235E-01  1.6029988651487E+00 -8.2838279548599E-01
38  3.7000000000000E-01 -4.8231618609328E-01  1.5936562365252E+00 -8.1200646672845E-01
39  3.8000000000000E-01 -6.1570595187372E-01  1.5816442548793E+00 -7.8709282986838E-01
40  3.9000000000000E-01 -7.4283360163222E-01  1.5670699229187E+00 -7.5400313686748E-01
41  4.0000000000000E-01 -8.6293427336822E-01  1.5500454482232E+00 -7.1318888346317E-01
42  4.1000000000000E-01 -9.7532327983560E-01  1.5306873892880E+00 -6.6516476659376E-01
43  4.2000000000000E-01 -1.0793892557340E+00  1.5091157891304E+00 -6.1048021422749E-01
44  4.3000000000000E-01 -1.1745863432094E+00  1.4854533158934E+00 -5.4969093166391E-01
45  4.4000000000000E-01 -1.2604260948529E+00  1.4598244306061E+00 -4.8333194576417E-01
46  4.5000000000000E-01 -1.3364697814055E+00  1.4323546021360E+00 -4.1189359524122E-01
47  4.6000000000000E-01 -1.4023217643331E+00  1.4031695883527E+00 -3.3580181022399E-01
48  4.7000000000000E-01 -1.4576245317950E+00  1.3723948006223E+00 -2.5540385029452E-01
49  4.8000000000000E-01 -1.5020559024379E+00  1.3401547660171E+00 -1.7096043293082E-01
50  4.9000000000000E-01 -1.5353287786326E+00  1.3065726981457E+00 -8.2644892778546E-02
51  5.0000000000000E-01 -1.5571936844241E+00  1.2717701834105E+00  9.4503217020789E-03
52  5.1000000000000E-01 -1.5674441600380E+00  1.2358669849388E+00  1.0529986967896E-01
53  5.2000000000000E-01 -1.5659249116923E+00  1.1989809616067E+00  2.0492488704728E-01
54  5.3000000000000E-01 -1.5525424408053E+00  1.1612280946749E+00  3.0836630181093E-01
55  5.4000000000000E-01 -1.5272777088536E+00  1.1227226098073E+00  4.1565324089439E-01
56  5.5000000000000E-01 -1.4902002414440E+00  1.0835771778549E+00  5.2676798046986E-01
57  5.6000000000000E-01 -1.4414829454783E+00  1.0439031739722E+00  6.4160914342802E-01
58  5.7000000000000E-01 -1.3814168136440E+00  1.0038109715717E+00  7.5995502993707E-01
59  5.8000000000000E-01 -1.3104246267140E+00  9.6341024547972E-01  8.8142906899674E-01
60  5.9000000000000E-01 -1.2290727406572E+00  9.2281025755655E-01  1.0054693926205E+00
61  6.0000000000000E-01 -1.1380800650352E+00  8.8212009806418E-01  1.1313044556355E+00
62  6.1000000000000E-01 -1.0383234023588E+00  8.4144885725130E-01  1.2579364529584E+00
63  6.2000000000000E-01 -9.3083842383090E-01  8.0090570395371E-01  1.3841340266422E+00
64  6.3000000000000E-01 -8.1681570205049E-01  7.6059985142331E-01  1.5084354151616E+00
65  6.4000000000000E-01 -6.9759140076117E-01  7.2064039498460E-01  1.6291627893514E+00
66  6.5000000000000E-01 -5.7463242883995E-01  6.8113601131834E-01  1.7444480586531E+00
67  6.6000000000000E-01 -4.4951609222842E-01  6.4219451499160E-01  1.8522699362577E+00
68  6.7000000000000E-01 -3.2390451406672E-01  6.0392227406369E-01  1.9505015429072E+00
69  6.8000000000000E-01 -1.9951432980313E-01  5.6642349294918E-01  2.0369673284139E+00
70  6.9000000000000E-01 -7.8082390095959E-02  5.2979937694785E-01  2.1095076196578E+00
71  7.0000000000000E-01  3.8671590360922E-02  4.9414719869659E-01  2.1660486855707E+00
72  7.1000000000000E-01  1.4908432509505E-01  4.5955929200225E-01  2.2046758635966E+00
73  7.2000000000000E-01  2.5158894039784E-01  4.2612200285002E-01  2.2237070358930E+00
74  7.3000000000000E-01  3.4475431383466E-01  3.9391463064441E-01  2.2217635914305E+00
75  7.4000000000000E-01  4.2732239051807E-01  3.6300839477430E-01  2.1978359723014E+00
76  7.5000000000000E-01  4.9824211796218E-01  3.3346546228729E-01  2.1513409844848E+00
77  7.6000000000000E-01  5.5669871321621E-01  3.0533807175868E-01  2.0821682554645E+00
78  7.7000000000000E-01  6.0213710323478E-01  2.7866778634889E-01  1.9907135386427E+00
79  7.8000000000000E-01  6.3427855719826E-01  2.5348490562413E-01  1.8778969874614E+00
80  7.9000000000000E-01  6.5312975150209E-01  2.2980806108787E-01  1.7451650355484E+00
81  8.0000000000000E-01  6.5898376606297E-01  2.0764401471200E-01  1.5944751037173E+00
82  8.1000000000000E-01  6.5241279429098E-01  1.8698767328536E-01  1.4282629871910E+00
83  8.2000000000000E-01  6.3425264697862E-01  1.6782232437720E-01  1.2493934310597E+00
84  8.3000000000000E-01  6.0557942998521E-01  1.5012009242932E-01  1.0610950511213E+00
85  8.4000000000000E-01  5.6767906401193E-01  1.3384260624939E-01  8.6688137255974E-01
86  8.5000000000000E-01  5.2201057922039E-01  1.1894186228452E-01  6.7046031277422E-01
87  8.6000000000000E-01  4.7016434589633E-01  1.0536126180496E-01  4.7563490128284E-01
88  8.7000000000000E-01  4.1381658401043E-01  9.3036794795351E-02  2.8619838619771E-01
89  8.8000000000000E-01  3.5468162038560E-01  8.1898339169920E-02  1.0582710469475E-01
90  8.9000000000000E-01  2.9446342545344E-01  7.1871041087860E-02 -6.2025419417978E-02
91  9.0000000000000E-01  2.3480795806314E-01  6.2876740777158E-02 -2.1422975227384E-01
92  9.1000000000000E-01  1.7725777513343E-01  5.4835408448420E-02 -3.4807401769717E-01
93  9.2000000000000E-01  1.2321022465615E-01  4.7666556596500E-02 -4.6134673542845E-01
94  9.3000000000000E-01  7.3880340230463E-02  4.1290598180482E-02 -5.5240670622082E-01
95  9.4000000000000E-01  3.0269300266620E-02  3.5630124709306E-02 -6.2023823447972E-01
96  9.5000000000000E-01 -6.8609848363473E-03  3.0611083947224E-02 -6.6449068733138E-01
97  9.6000000000000E-01 -3.7006926824832E-02  2.6163843544861E-02 -6.8550216339393E-01
98  9.7000000000000E-01 -5.9936075764433E-02  2.2224134105249E-02 -6.8430785338681E-01
99  9.8000000000000E-01 -7.5694174705112E-02  1.8733872696530E-02 -6.6263448511808E-01
100  9.9000000000000E-01 -8.4607275681275E-02  1.5641875317117E-02 -6.2288302854550E-01
101  1.0000000000000E+00 -8.7279985108555E-02  1.2904472643152E-02 -5.6810231815881E-01
102  1.0100000000000E+00 -8.4590517943942E-02  1.0486038228361E-02 -5.0195478331666E-01
103  1.0200000000000E+00 -7.7634902337401E-02  8.3586050153159E-03 -4.2852677126470E-01
104  1.0300000000000E+00 -6.7592000352433E-02  6.5000814421748E-03 -3.5191154880397E-01
105  1.0400000000000E+00 -5.5650427639429E-02  4.8934439889295E-03 -2.7600712933979E-01
106  1.0500000000000E+00 -4.2960789553929E-02  3.5261119538970E-03 -2.0439833021601E-01
107  1.0600000000000E+00 -3.0539225499672E-02  2.3789111927374E-03 -1.4018213706816E-01
108  1.0700000000000E+00 -1.9315312320065E-02  1.4467291707207E-03 -8.5981857702041E-02
109  1.0800000000000E+00 -1.0131491690122E-02  7.3836849999038E-04 -4.3920697384931E-02
110  1.0900000000000E+00 -3.6582028529976E-03  2.6226444242082E-04 -1.5496596837668E-02
111  1.1000000000000E+00 -3.8892673308028E-04  2.7715115438074E-05 -1.6137627689647E-03
112  1.1100000000000E+00  1.4506738520741E-05 -1.0294323601682E-06  5.9433802645512E-05
113  1.1200000000000E+00  1.7799308929844E-06 -1.2667772356954E-07  7.4192852112622E-06
114  1.13  0.  0.  0.
115  1.14  0.  0.  0.
116  1.15  0.  0.  0.
117  1.16  0.  0.  0.
118  1.17  0.  0.  0.
119  1.18  0.  0.  0.
120  1.19  0.  0.  0.
121  1.20  0.  0.  0.
122  1.21  0.  0.  0.
123  1.22  0.  0.  0.
124  1.23  0.  0.  0.
125  1.24  0.  0.  0.
126  1.25  0.  0.  0.
127  1.26  0.  0.  0.
128  1.27  0.  0.  0.
129  1.28  0.  0.  0.
130  1.29  0.  0.  0.
131  1.30  0.  0.  0.
132  1.31  0.  0.  0.
133  1.32  0.  0.  0.
134  1.33  0.  0.  0.
135  1.34  0.  0.  0.
136  1.35  0.  0.  0.
137  1.36  0.  0.  0.
138  1.37  0.  0.  0.
139  1.38  0.  0.  0.
140  1.39  0.  0.  0.
141  1.40  0.  0.  0.
142  1.41  0.  0.  0.
143  1.42  0.  0.  0.
144  1.43  0.  0.  0.
145  1.44  0.  0.  0.
146  1.45  0.  0.  0.
147  1.46  0.  0.  0.
148  1.47  0.  0.  0.
149  1.48  0.  0.  0.
150  1.49  0.  0.  0.
151  1.50  0.  0.  0.
152  1.51  0.  0.  0.
153  1.52  0.  0.  0.
154  1.53  0.  0.  0.
155  1.54  0.  0.  0.
156  1.55  0.  0.  0.
157  1.56  0.  0.  0.
158  1.57  0.  0.  0.
159  1.58  0.  0.  0.
160  1.59  0.  0.  0.
161  1.60  0.  0.  0.
162  1.61  0.  0.  0.
163  1.62  0.  0.  0.
164  1.63  0.  0.  0.
165  1.64  0.  0.  0.
166  1.65  0.  0.  0.
167  1.66  0.  0.  0.
168  1.67  0.  0.  0.
169  1.68  0.  0.  0.
170  1.69  0.  0.  0.
171  1.70  0.  0.  0.
172  1.71  0.  0.  0.
173  1.72  0.  0.  0.
174  1.73  0.  0.  0.
175  1.74  0.  0.  0.
176  1.75  0.  0.  0.
177  1.76  0.  0.  0.
178  1.77  0.  0.  0.
179  1.78  0.  0.  0.
180  1.79  0.  0.  0.
181  1.80  0.  0.  0.
182  1.81  0.  0.  0.
183  1.82  0.  0.  0.
184  1.83  0.  0.  0.
185  1.84  0.  0.  0.
186  1.85  0.  0.  0.
187  1.86  0.  0.  0.
188  1.87  0.  0.  0.
189  1.88  0.  0.  0.
190  1.89  0.  0.  0.
191  1.90  0.  0.  0.
192  1.91  0.  0.  0.
193  1.92  0.  0.  0.
194  1.93  0.  0.  0.
195  1.94  0.  0.  0.
196  1.95  0.  0.  0.
197  1.96  0.  0.  0.
198  1.97  0.  0.  0.
199  1.98  0.  0.  0.
200  1.99  0.  0.  0.
201  2.00  0.  0.  0.
202  2.01  0.  0.  0.
203  2.02  0.  0.  0.
204  2.03  0.  0.  0.
205  2.04  0.  0.  0.
206  2.05  0.  0.  0.
207  2.06  0.  0.  0.
208  2.07  0.  0.  0.
209  2.08  0.  0.  0.
210  2.09  0.  0.  0.
211  2.10  0.  0.  0.
212  2.11  0.  0.  0.
213  2.12  0.  0.  0.
214  2.13  0.  0.  0.
215  2.14  0.  0.  0.
216  2.15  0.  0.  0.
217  2.16  0.  0.  0.
218  2.17  0.  0.  0.
219  2.18  0.  0.  0.
220  2.19  0.  0.  0.
221  2.20  0.  0.  0.
222  2.21  0.  0.  0.
223  2.22  0.  0.  0.
224  2.23  0.  0.  0.
225  2.24  0.  0.  0.
226  2.25  0.  0.  0.
227  2.26  0.  0.  0.
228  2.27  0.  0.  0.
229  2.28  0.  0.  0.
230  2.29  0.  0.  0.
231  2.30  0.  0.  0.
232  2.31  0.  0.  0.
233  2.32  0.  0.  0.
234  2.33  0.  0.  0.
235  2.34  0.  0.  0.
236  2.35  0.  0.  0.
237  2.36  0.  0.  0.
238  2.37  0.  0.  0.
239  2.38  0.  0.  0.
240  2.39  0.  0.  0.
241  2.40  0.  0.  0.
242  2.41  0.  0.  0.
243  2.42  0.  0.  0.
244  2.43  0.  0.  0.
245  2.44  0.  0.  0.
246  2.45  0.  0.  0.
247  2.46  0.  0.  0.
248  2.47  0.  0.  0.
249  2.48  0.  0.  0.
250  2.49  0.  0.  0.
251  2.50  0.  0.  0.
252  2.51  0.  0.  0.
253  2.52  0.  0.  0.
254  2.53  0.  0.  0.
255  2.54  0.  0.  0.
256  2.55  0.  0.  0.
257  2.56  0.  0.  0.
258  2.57  0.  0.  0.
259  2.58  0.  0.  0.
260  2.59  0.  0.  0.
261  2.60  0.  0.  0.
262  2.61  0.  0.  0.
263  2.62  0.  0.  0.
264  2.63  0.  0.  0.
265  2.64  0.  0.  0.
266  2.65  0.  0.  0.
267  2.66  0.  0.  0.
268  2.67  0.  0.  0.
269  2.68  0.  0.  0.
270  2.69  0.  0.  0.
271  2.70  0.  0.  0.
272  2.71  0.  0.  0.
273  2.72  0.  0.  0.
274  2.73  0.  0.  0.
275  2.74  0.  0.  0.
276  2.75  0.  0.  0.
277  2.76  0.  0.  0.
278  2.77  0.  0.  0.
279  2.78  0.  0.  0.
280  2.79  0.  0.  0.
281  2.80  0.  0.  0.
282  2.81  0.  0.  0.
283  2.82  0.  0.  0.
284  2.83  0.  0.  0.
285  2.84  0.  0.  0.
286  2.85  0.  0.  0.
287  2.86  0.  0.  0.
288  2.87  0.  0.  0.
289  2.88  0.  0.  0.
290  2.89  0.  0.  0.
291  2.90  0.  0.  0.
292  2.91  0.  0.  0.
293  2.92  0.  0.  0.
294  2.93  0.  0.  0.
295  2.94  0.  0.  0.
296  2.95  0.  0.  0.
297  2.96  0.  0.  0.
298  2.97  0.  0.  0.
299  2.98  0.  0.  0.
300  2.99  0.  0.  0.
301  3.00  0.  0.  0.
302  3.01  0.  0.  0.
303  3.02  0.  0.  0.
304  3.03  0.  0.  0.
305  3.04  0.  0.  0.
306  3.05  0.  0.  0.
307  3.06  0.  0.  0.
308  3.07  0.  0.  0.
309  3.08  0.  0.  0.
310  3.09  0.  0.  0.
311  3.10  0.  0.  0.
312  3.11  0.  0.  0.
313  3.12  0.  0.  0.
314  3.13  0.  0.  0.
315  3.14  0.  0.  0.
316  3.15  0.  0.  0.
317  3.16  0.  0.  0.
318  3.17  0.  0.  0.
319  3.18  0.  0.  0.
320  3.19  0.  0.  0.
321  3.20  0.  0.  0.
322  3.21  0.  0.  0.
323  3.22  0.  0.  0.
324  3.23  0.  0.  0.
325  3.24  0.  0.  0.
326  3.25  0.  0.  0.
327  3.26  0.  0.  0.
328  3.27  0.  0.  0.
329  3.28  0.  0.  0.
330  3.29  0.  0.  0.
331  3.30  0.  0.  0.
332  3.31  0.  0.  0.
333  3.32  0.  0.  0.
334  3.33  0.  0.  0.
335  3.34  0.  0.  0.
336  3.35  0.  0.  0.
337  3.36  0.  0.  0.
338  3.37  0.  0.  0.
339  3.38  0.  0.  0.
340  3.39  0.  0.  0.
341  3.40  0.  0.  0.
342  3.41  0.  0.  0.
343  3.42  0.  0.  0.
344  3.43  0.  0.  0.
345  3.44  0.  0.  0.
346  3.45  0.  0.  0.
347  3.46  0.  0.  0.
348  3.47  0.  0.  0.
349  3.48  0.  0.  0.
350  3.49  0.  0.  0.
351  3.50  0.  0.  0.
352  3.51  0.  0.  0.
353  3.52  0.  0.  0.
354  3.53  0.  0.  0.
355  3.54  0.  0.  0.
356  3.55  0.  0.  0.
357  3.56  0.  0.  0.
358  3.57  0.  0.  0.
359  3.58  0.  0.  0.
360  3.59  0.  0.  0.
361  3.60  0.  0.  0.
362  3.61  0.  0.  0.
363  3.62  0.  0.  0.
364  3.63  0.  0.  0.
365  3.64  0.  0.  0.
366  3.65  0.  0.  0.
367  3.66  0.  0.  0.
368  3.67  0.  0.  0.
369  3.68  0.  0.  0.
370  3.69  0.  0.  0.
371  3.70  0.  0.  0.
372  3.71  0.  0.  0.
373  3.72  0.  0.  0.
374  3.73  0.  0.  0.
375  3.74  0.  0.  0.
376  3.75  0.  0.  0.
377  3.76  0.  0.  0.
378  3.77  0.  0.  0.
379  3.78  0.  0.  0.
380  3.79  0.  0.  0.
381  3.80  0.  0.  0.
382  3.81  0.  0.  0.
383  3.82  0.  0.  0.
384  3.83  0.  0.  0.
385  3.84  0.  0.  0.
386  3.85  0.  0.  0.
387  3.86  0.  0.  0.
388  3.87  0.  0.  0.
389  3.88  0.  0.  0.
390  3.89  0.  0.  0.
391  3.90  0.  0.  0.
392  3.91  0.  0.  0.
393  3.92  0.  0.  0.
394  3.93  0.  0.  0.
395  3.94  0.  0.  0.
396  3.95  0.  0.  0.
397  3.96  0.  0.  0.
398  3.97  0.  0.  0.
399  3.98  0.  0.  0.
400  3.99  0.  0.  0.
401  4.00  0.  0.  0.
402  4.01  0.  0.  0.
403  4.02  0.  0.  0.
404  4.03  0.  0.  0.
405  4.04  0.  0.  0.
406  4.05  0.  0.  0.
407  4.06  0.  0.  0.
408  4.07  0.  0.  0.
409  4.08  0.  0.  0.
410  4.09  0.  0.  0.
411  4.10  0.  0.  0.
412  4.11  0.  0.  0.
413  4.12  0.  0.  0.
414  4.13  0.  0.  0.
415  4.14  0.  0.  0.
416  4.15  0.  0.  0.
417  4.16  0.  0.  0.
418  4.17  0.  0.  0.
419  4.18  0.  0.  0.
420  4.19  0.  0.  0.
421  4.20  0.  0.  0.
422  4.21  0.  0.  0.
423  4.22  0.  0.  0.
424  4.23  0.  0.  0.
425  4.24  0.  0.  0.
426  4.25  0.  0.  0.
427  4.26  0.  0.  0.
428  4.27  0.  0.  0.
429  4.28  0.  0.  0.
430  4.29  0.  0.  0.
431  4.30  0.  0.  0.
432  4.31  0.  0.  0.
433  4.32  0.  0.  0.
434  4.33  0.  0.  0.
435  4.34  0.  0.  0.
436  4.35  0.  0.  0.
437  4.36  0.  0.  0.
438  4.37  0.  0.  0.
439  4.38  0.  0.  0.
440  4.39  0.  0.  0.
441  4.40  0.  0.  0.
442  4.41  0.  0.  0.
443  4.42  0.  0.  0.
444  4.43  0.  0.  0.
445  4.44  0.  0.  0.
446  4.45  0.  0.  0.
447  4.46  0.  0.  0.
448  4.47  0.  0.  0.
449  4.48  0.  0.  0.
450  4.49  0.  0.  0.
451  4.50  0.  0.  0.
452  4.51  0.  0.  0.
453  4.52  0.  0.  0.
454  4.53  0.  0.  0.
455  4.54  0.  0.  0.
456  4.55  0.  0.  0.
457  4.56  0.  0.  0.
458  4.57  0.  0.  0.
459  4.58  0.  0.  0.
460  4.59  0.  0.  0.
461  4.60  0.  0.  0.
462  4.61  0.  0.  0.
463  4.62  0.  0.  0.
464  4.63  0.  0.  0.
465  4.64  0.  0.  0.
466  4.65  0.  0.  0.
467  4.66  0.  0.  0.
468  4.67  0.  0.  0.
469  4.68  0.  0.  0.
470  4.69  0.  0.  0.
471  4.70  0.  0.  0.
472  4.71  0.  0.  0.
473  4.72  0.  0.  0.
474  4.73  0.  0.  0.
475  4.74  0.  0.  0.
476  4.75  0.  0.  0.
477  4.76  0.  0.  0.
478  4.77  0.  0.  0.
479  4.78  0.  0.  0.
480  4.79  0.  0.  0.
481  4.80  0.  0.  0.
482  4.81  0.  0.  0.
483  4.82  0.  0.  0.
484  4.83  0.  0.  0.
485  4.84  0.  0.  0.
486  4.85  0.  0.  0.
487  4.86  0.  0.  0.
488  4.87  0.  0.  0.
489  4.88  0.  0.  0.
490  4.89  0.  0.  0.
491  4.90  0.  0.  0.
492  4.91  0.  0.  0.
493  4.92  0.  0.  0.
494  4.93  0.  0.  0.
495  4.94  0.  0.  0.
496  4.95  0.  0.  0.
497  4.96  0.  0.  0.
498  4.97  0.  0.  0.
499  4.98  0.  0.  0.
500  4.99  0.  0.  0.
501  5.00  0.  0.  0.
502  5.01  0.  0.  0.
503  5.02  0.  0.  0.
504  5.03  0.  0.  0.
505  5.04  0.  0.  0.
506  5.05  0.  0.  0.
507  5.06  0.  0.  0.
508  5.07  0.  0.  0.
509  5.08  0.  0.  0.
510  5.09  0.  0.  0.
511  5.10  0.  0.  0.
512  5.11  0.  0.  0.
513  5.12  0.  0.  0.
514  5.13  0.  0.  0.
515  5.14  0.  0.  0.
516  5.15  0.  0.  0.
517  5.16  0.  0.  0.
518  5.17  0.  0.  0.
519  5.18  0.  0.  0.
520  5.19  0.  0.  0.
521  5.20  0.  0.  0.
522  5.21  0.  0.  0.
523  5.22  0.  0.  0.
524  5.23  0.  0.  0.
525  5.24  0.  0.  0.
526  5.25  0.  0.  0.
527  5.26  0.  0.  0.
528  5.27  0.  0.  0.
529  5.28  0.  0.  0.
530  5.29  0.  0.  0.
531  5.30  0.  0.  0.
532  5.31  0.  0.  0.
533  5.32  0.  0.  0.
534  5.33  0.  0.  0.
535  5.34  0.  0.  0.
536  5.35  0.  0.  0.
537  5.36  0.  0.  0.
538  5.37  0.  0.  0.
539  5.38  0.  0.  0.
540  5.39  0.  0.  0.
541  5.40  0.  0.  0.
542  5.41  0.  0.  0.
543  5.42  0.  0.  0.
544  5.43  0.  0.  0.
545  5.44  0.  0.  0.
546  5.45  0.  0.  0.
547  5.46  0.  0.  0.
548  5.47  0.  0.  0.
549  5.48  0.  0.  0.
550  5.49  0.  0.  0.
551  5.50  0.  0.  0.
552  5.51  0.  0.  0.
553  5.52  0.  0.  0.
554  5.53  0.  0.  0.
555  5.54  0.  0.  0.
556  5.55  0.  0.  0.
557  5.56  0.  0.  0.
558  5.57  0.  0.  0.
559  5.58  0.  0.  0.
560  5.59  0.  0.  0.
561  5.60  0.  0.  0.
562  5.61  0.  0.  0.
563  5.62  0.  0.  0.
564  5.63  0.  0.  0.
565  5.64  0.  0.  0.
566  5.65  0.  0.  0.
567  5.66  0.  0.  0.
568  5.67  0.  0.  0.
569  5.68  0.  0.  0.
570  5.69  0.  0.  0.
571  5.70  0.  0.  0.
572  5.71  0.  0.  0.
573  5.72  0.  0.  0.
574  5.73  0.  0.  0.
575  5.74  0.  0.  0.
576  5.75  0.  0.  0.
577  5.76  0.  0.  0.
578  5.77  0.  0.  0.
579  5.78  0.  0.  0.
580  5.79  0.  0.  0.
581  5.80  0.  0.  0.
582  5.81  0.  0.  0.
583  5.82  0.  0.  0.
584  5.83  0.  0.  0.
585  5.84  0.  0.  0.
586  5.85  0.  0.  0.
587  5.86  0.  0.  0.
588  5.87  0.  0.  0.
589  5.88  0.  0.  0.
590  5.89  0.  0.  0.
591  5.90  0.  0.  0.
592  5.91  0.  0.  0.
593  5.92  0.  0.  0.
594  5.93  0.  0.  0.
595  5.94  0.  0.  0.
596  5.95  0.  0.  0.
597  5.96  0.  0.  0.
598  5.97  0.  0.  0.
599  5.98  0.  0.  0.
600  5.99  0.  0.  0.
1                        -9.9377454902446E+00  6.9734276620454E-01 -3.0424727904929E-01 -1.1878412771956E-02
1  0.0000000000000E+00  1.1171812558386E-08  2.3768993834272E-07  2.2549927336524E-07 -1.4941974310623E-07
2  1.0000000000000E-02  3.1652898977263E-03  2.8179962069496E-03  9.6681321577388E-03  1.6552901754896E-03
3  2.0000000000000E-02  1.2633789730925E-02  1.1144004939641E-02  3.8459933190237E-02  6.6334804541790E-03
4  3.0000000000000E-02  2.8323741192513E-02  2.4598667975041E-02  8.5742795774728E-02  1.4969440563392E-02
5  4.0000000000000E-02  5.0100044096959E-02  4.2564823571429E-02  1.5047948422547E-01  2.6714437005488E-02
6  5.0000000000000E-02  7.7775976712820E-02  6.4209572802090E-02  2.3125326743672E-01  4.1926256972917E-02
7  6.0000000000000E-02  1.1111555469084E-01  8.8514022934503E-02  3.2630206036505E-01  6.0656159669902E-02
8  7.0000000000000E-02  1.4983648083235E-01  1.1430961275466E-01  4.3356057307479E-01  8.2933389132759E-02
9  8.0000000000000E-02  1.9361362677101E-01  1.4031968704616E-01  5.5070924087110E-01  1.0874813206060E-01
10  9.0000000000000E-02  2.4208297819766E-01  1.6520480187163E-01  6.7522852570120E-01  1.3803391205966E-01
11  1.0000000000000E-01  2.9484596779533E-01  1.8761011593794E-01  8.0445704378013E-01  1.7065047275621E-01
12  1.1000000000000E-01  3.5147411474739E-01  2.0621316081098E-01  9.3565189142537E-01  2.0636821322144E-01
13  1.2000000000000E-01  4.1151388664012E-01  2.1977028614206E-01  1.0660495125297E+00  2.4485519907716E-01
14  1.3000000000000E-01  4.7449169882330E-01  2.2716014477097E-01  1.1929254770877E+00  2.8566768279846E-01
15  1.4000000000000E-01  5.3991896776195E-01  2.2742271333970E-01  1.3136516188190E+00  3.2824493061235E-01
16  1.5000000000000E-01  6.0729713847603E-01  2.1979253116092E-01  1.4257491073684E+00  3.7190897661215E-01
17  1.6000000000000E-01  6.7612261162089E-01  2.0372507556905E-01  1.5269362012242E+00  4.1586971471899E-01
18  1.7000000000000E-01  7.4589150284551E-01  1.7891546597328E-01  1.6151696342666E+00  4.5923550490645E-01
19  1.8000000000000E-01  8.1610417546835E-01  1.4530898997974E-01  1.6886788234083E+00  5.0102922179871E-01
20  1.9000000000000E-01  8.8626949688244E-01  1.0310326089479E-01  1.7459923379006E+00  5.4020942220252E-01
21  2.0000000000000E-01  9.5590877907444E-01  5.2742133810218E-02  1.7859563328281E+00  5.7569606443403E-01
22  2.1000000000000E-01  1.0245593738414E+00 -5.0981855068103E-03  1.8077449102672E+00  6.0639998731641E-01
23  2.2000000000000E-01  1.0917779033453E+00 -6.9530120788915E-02  1.8108626219614E+00  6.3125516061676E-01
24  2.3000000000000E-01  1.1571431162167E+00 -1.3948182675960E-01  1.7951395582530E+00  6.4925256047839E-01
25  2.4000000000000E-01  1.2202583681932E+00 -2.1372923851463E-01  1.7607196714645E+00  6.5947441057224E-01
26  2.5000000000000E-01  1.2807537340008E+00 -2.9093174137525E-01  1.7080431512993E+00  6.6112746785359E-01
27  2.6000000000000E-01  1.3382877636384E+00 -3.6967003701064E-01  1.6378237999974E+00  6.5357402446621E-01
28  2.7000000000000E-01  1.3925489012846E+00 -4.4848474514467E-01  1.5510224425299E+00  6.3635934570173E-01
29  2.8000000000000E-01  1.4432565886164E+00 -5.2591430453706E-01  1.4488174504237E+00  6.0923436686538E-01
30  2.9000000000000E-01  1.4901620764172E+00 -6.0053082016770E-01  1.3325734571104E+00  5.7217262596981E-01
31  3.0000000000000E-01  1.5330489690134E+00 -6.7097264122321E-01  1.2038093000076E+00  5.2538060873893E-01
32  3.1000000000000E-01  1.5717335254283E+00 -7.3597263990718E-01  1.0641661435552E+00  4.6930091984169E-01
33  3.2000000000000E-01  1.6060647393649E+00 -7.9438138564508E-01  9.1537662333991E-01  4.0460796032123E-01
34  3.3000000000000E-01  1.6359242174373E+00 -8.4518466273055E-01  7.5923571065259E-01  3.3219607526529E-01
35  3.4000000000000E-01  1.6612258717201E+00 -8.8751505051789E-01  5.9757383674296E-01  2.5316042645182E-01
36  3.5000000000000E-01  1.6819154389570E+00 -9.2065756190617E-01  4.3223264464581E-01  1.6877113016480E-01
37  3.6000000000000E-01  1.6979698349402E+00 -9.4404960592919E-01  2.6504356205375E-01  8.0441468865739E-02
38  3.7000000000000E-01  1.7093963489314E+00 -9.5727579196527E-01  9.7809219500611E-02 -1.0308774252006E-02
39  3.8000000000000E-01  1.7162316797915E+00 -9.6005831546669E-01 -6.7712418122017E-02 -1.0189360675119E-01
40  3.9000000000000E-01  1.7185408129726E+00 -9.5224384854467E-01 -2.2982147494007E-01 -1.9270333834851E-01
41  4.0000000000000E-01  1.7164157358676E+00 -9.3378799530694E-01 -3.8688752086649E-01 -2.8114780489699E-01
42  4.1000000000000E-01  1.7099739883824E+00 -9.0473845565047E-01 -5.3735931988777E-01 -3.6569875506225E-01
43  4.2000000000000E-01  1.6993570460526E+00 -8.6521806866998E-01 -6.7977347375433E-01 -4.4492986830269E-01
44  4.3000000000000E-01  1.6847285346213E+00 -8.1540887680510E-01 -8.1276247527639E-01 -5.1755295233161E-01
45  4.4000000000000E-01  1.6662722776758E+00 -7.5553826566647E-01 -9.3506266037443E-01 -5.8244900639882E-01
46  4.5000000000000E-01  1.6441901826239E+00 -6.8586809594674E-01 -1.0455224893499E+00 -6.3869302863543E-01
47  4.6000000000000E-01  1.6186999748217E+00 -6.0668755903366E-01 -1.1431114988464E+00 -6.8557168427639E-01
48  4.7000000000000E-01  1.5900327948426E+00 -5.1831026504862E-01 -1.2269301514186E+00 -7.2259322779047E-01
49  4.8000000000000E-01  1.5584306794586E+00 -4.2107582091103E-01 -1.2962206754917E+00 -7.4948937515948E-01
50  4.9000000000000E-01  1.5241439526220E+00 -3.1535588788297E-01 -1.3503788417368E+00 -7.6620914090793E-01
51  5.0000000000000E-01  1.4874285582836E+00 -2.0156443495527E-01 -1.3889664701268E+00 -7.7290497538516E-01
52  5.1000000000000E-01  1.4485433719804E+00 -8.0171638844897E-02 -1.4117243131500E+00 -7.6991184838453E-01
53  5.2000000000000E-01  1.4077475324593E+00  4.8279364394528E-02 -1.4185848228185E+00 -7.5772021282509E-01
54  5.3000000000000E-01  1.3652978379227E+00  1.8315388543595E-01 -1.4096841898389E+00 -7.3694403505791E-01
55  5.4000000000000E-01  1.3214462535266E+00  3.2370642698126E-01 -1.3853729495798E+00 -7.0828528573958E-01
56  5.5000000000000E-01  1.2764375773575E+00  4.6906207121636E-01 -1.3462243872148E+00 -6.7249643816460E-01
57  5.6000000000000E-01  1.2305073111045E+00  6.1819987580814E-01 -1.2930399483532E+00 -6.3034261251034E-01
58  5.7000000000000E-01  1.1838797789567E+00  7.6993964580318E-01 -1.2268508747900E+00 -5.8256503002881E-01
59  5.8000000000000E-01  1.1367665338878E+00  9.2293338516832E-01 -1.1489153392552E+00 -5.2984739875525E-01
60  5.9000000000000E-01  1.0893650844849E+00  1.0756626040818E+00 -1.0607104480100E+00 -4.7278674242372E-01
61  6.0000000000000E-01  1.0418579679839E+00  1.2264424697359E+00 -9.6391861379802E-01 -4.1187001029731E-01
62  6.1000000000000E-01  9.9441218638059E-01  1.3734335452658E+00 -8.6040797024321E-01 -3.4745757345310E-01
63  6.2000000000000E-01  9.4717901265219E-01  1.5146615718478E+00 -7.5220669686832E-01 -2.7977443104993E-01
64  6.3000000000000E-01  9.0029416357126E-01  1.6480454235485E+00 -6.4147134458001E-01 -2.0890962872348E-01
65  6.4000000000000E-01  8.5387832467625E-01  1.7714330154884E+00 -5.3044948661651E-01 -1.3482404272750E-01
66  6.5000000000000E-01  8.0803800206825E-01  1.8826445869822E+00 -4.2143726050562E-01 -5.7366321324074E-02
67  6.6000000000000E-01  7.6286666523900E-01  1.9795224270479E+00 -3.1673260288556E-01  2.3703586413693E-02
68  6.7000000000000E-01  7.1844613550510E-01  2.0599857747941E+00 -2.1858520122839E-01  1.0868423018012E-01
69  6.8000000000000E-01  6.7484816621664E-01  2.1220893261792E+00 -1.2914438487020E-01  1.9789701842967E-01
70  6.9000000000000E-01  6.3213615408609E-01  2.1640835250428E+00 -5.0406343164940E-02  2.9164664389849E-01
71  7.0000000000000E-01  5.9036691605549E-01  2.1844746222304E+00  1.5837817131041E-02  3.9017929767858E-01
72  7.1000000000000E-01  5.4959246333988E-01  2.1820823621979E+00  6.8051586839191E-02  4.9364054747832E-01
73  7.2000000000000E-01  5.0986170383221E-01  2.1560931093439E+00  1.0499853021908E-01  6.0203483530052E-01
74  7.3000000000000E-01  4.7122200602642E-01  2.1061062613383E+00  1.2578214370597E-01  7.1518855131298E-01
75  7.4000000000000E-01  4.3372056202101E-01  2.0321719156325E+00  1.2987861080656E-01  8.3271856216546E-01
76  7.5000000000000E-01  3.9740549392100E-01  1.9348179566706E+00  1.1716111457641E-01  9.5400791449813E-01
77  7.6000000000000E-01  3.6232665688664E-01  1.8150650102403E+00  8.7914570879504E-02  1.0781902021826E+00
78  7.7000000000000E-01  3.2853610291780E-01  1.6744280599127E+00  4.2839895639468E-02  1.2041437862867E+00
79  7.8000000000000E-01  2.9608818186820E-01  1.5149039276469E+00 -1.6952789897005E-02  1.3304967000371E+00
80  7.9000000000000E-01  2.6503926973555E-01  1.3389442726843E+00 -8.9962289594966E-02  1.4556426699732E+00
81  8.0000000000000E-01  2.3544712849836E-01  1.1494142440402E+00 -1.7432572933267E-01  1.5777682538382E+00
82  8.1000000000000E-01  2.0736991615236E-01  9.4953741472734E-01 -2.6785879952386E-01  1.6948906519567E+00