Ds    ONCVPSP-4.0.1  r_core=   1.10457   1.10457   1.10457   1.14493
110.0000     50.0000      220822    zatom,zion,pspd
8      11   3     4   600     0    pspcod,pspxc,lmax,lloc,mmax,r2well
5.99000000  3.80000000  0.00000000    rchrg fchrg qchrg
3     2     2     2     0    nproj
1     1           extension_switch
0                         1.3477686922424E+01 -1.1667554992333E+01  1.5930502872552E+00
1  0.0000000000000E+00  7.5208642202895E-08 -2.7295570248498E-09  1.3438739590588E-07
2  1.0000000000000E-02  1.6478065354511E-01  8.0607930891525E-02  2.5232846718959E-02
3  2.0000000000000E-02  3.2811691612455E-01  1.6099223247491E-01  4.9846948637313E-02
4  3.0000000000000E-02  4.8857317489682E-01  2.4093051473198E-01  7.3225804009438E-02
5  4.0000000000000E-02  6.4473161865244E-01  3.2020284608097E-01  9.4757900268470E-02
6  5.0000000000000E-02  7.9520173018983E-01  3.9859293300944E-01  1.1384042703090E-01
7  6.0000000000000E-02  9.3863042852421E-01  4.7588924233411E-01  1.2988434362049E-01
8  7.0000000000000E-02  1.0737129812462E+00  5.5188605040014E-01  1.4232108021214E-01
9  8.0000000000000E-02  1.1992047321383E+00  6.2638440626216E-01  1.5061101730873E-01
10  9.0000000000000E-02  1.3139336038444E+00  6.9919299904363E-01  1.5425373614969E-01
11  1.0000000000000E-01  1.4168132450785E+00  7.7012892309712E-01  1.5279987208991E-01
12  1.1000000000000E-01  1.5068566020242E+00  8.3901833812173E-01  1.4586424391210E-01
13  1.2000000000000E-01  1.5831896097859E+00  9.0569702486542E-01  1.3313978447371E-01
14  1.3000000000000E-01  1.6450646273246E+00  9.7001084028494E-01  1.1441167160164E-01
15  1.4000000000000E-01  1.6918731830725E+00  1.0318160789026E+00  8.9570961302511E-02
16  1.5000000000000E-01  1.7231575623961E+00  1.0909797494557E+00  5.8626965210110E-02
17  1.6000000000000E-01  1.7386207552863E+00  1.1473797776754E+00  2.1717595906877E-02
18  1.7000000000000E-01  1.7381342949218E+00  1.2009051470878E+00 -2.0883069746519E-02
19  1.8000000000000E-01  1.7217435555967E+00  1.2514559900600E+00 -6.8760687371915E-02
20  1.9000000000000E-01  1.6896701410778E+00  1.2989436409236E+00 -1.2136056500107E-01
21  2.0000000000000E-01  1.6423110795815E+00  1.3432906619338E+00 -1.7799201544634E-01
22  2.1000000000000E-01  1.5802346457927E+00  1.3844308511418E+00 -2.3783736455620E-01
23  2.2000000000000E-01  1.5041727491667E+00  1.4223092390721E+00 -2.9996562962155E-01
24  2.3000000000000E-01  1.4150099557253E+00  1.4568820785475E+00 -3.6335065992552E-01
25  2.4000000000000E-01  1.3137693416621E+00  1.4881168292339E+00 -4.2689330733076E-01
26  2.5000000000000E-01  1.2015955049222E+00  1.5159921356650E+00 -4.8944698061346E-01
27  2.6000000000000E-01  1.0797351791597E+00  1.5404977948014E+00 -5.4984574459227E-01
28  2.7000000000000E-01  9.4951599703196E-01  1.5616347067647E+00 -6.0693396481539E-01
29  2.8000000000000E-01  8.1232403122959E-01  1.5794148003981E+00 -6.5959638021272E-01
30  2.9000000000000E-01  6.6958079744117E-01  1.5938609238742E+00 -7.0678741736660E-01
31  3.0000000000000E-01  5.2272043023888E-01  1.6050066898011E+00 -7.4755854631825E-01
32  3.1000000000000E-01  3.7316773861969E-01  1.6128962642289E+00 -7.8108252188209E-01
33  3.2000000000000E-01  2.2231781209625E-01  1.6175840896599E+00 -8.0667345622351E-01
34  3.3000000000000E-01  7.1517781770848E-02  1.6191345336130E+00 -8.2380182502379E-01
35  3.4000000000000E-01 -7.7948753759497E-02  1.6176214564186E+00 -8.3210371509567E-01
36  3.5000000000000E-01 -2.2487424662890E-01  1.6131276946531E+00 -8.3138386742701E-01
37  3.6000000000000E-01 -3.6813640888393E-01  1.6057444598274E+00 -8.2161234561590E-01
38  3.7000000000000E-01 -5.0670401016452E-01  1.5955706554687E+00 -8.0291495302957E-01
39  3.8000000000000E-01 -6.3963931804833E-01  1.5827121194204E+00 -7.7555781902390E-01
40  3.9000000000000E-01 -7.6609739035795E-01  1.5672808018216E+00 -7.3992686085682E-01
41  4.0000000000000E-01 -8.8532257490266E-01  1.5493938926506E+00 -6.9650308923824E-01
42  4.1000000000000E-01 -9.9664270213323E-01  1.5291729157172E+00 -6.4583494828011E-01
43  4.2000000000000E-01 -1.0994615634363E+00  1.5067428084100E+00 -5.8850905286873E-01
44  4.3000000000000E-01 -1.1932503466467E+00  1.4822310081964E+00 -5.2512079817370E-01
45  4.4000000000000E-01 -1.2775387463968E+00  1.4557665677049E+00 -4.5624635970917E-01
46  4.5000000000000E-01 -1.3519064772158E+00  1.4274793201326E+00 -3.8241757368259E-01
47  4.6000000000000E-01 -1.4159758905320E+00  1.3974991156523E+00 -3.0410108520734E-01
48  4.7000000000000E-01 -1.4694063333576E+00  1.3659551474707E+00 -2.2168297869468E-01
49  4.8000000000000E-01 -1.5118907886299E+00  1.3329753832476E+00 -1.3545986618057E-01
50  4.9000000000000E-01 -1.5431552088367E+00  1.2986861138340E+00 -4.5637114568345E-02
51  5.0000000000000E-01 -1.5629608010831E+00  1.2632116268543E+00  4.7665446205322E-02
52  5.1000000000000E-01 -1.5711093499352E+00  1.2266740077243E+00  1.4440036076581E-01
53  5.2000000000000E-01 -1.5674514820057E+00  1.1891930654600E+00  2.4457234040183E-01
54  5.3000000000000E-01 -1.5518975918518E+00  1.1508863753199E+00  3.4821179633718E-01
55  5.4000000000000E-01 -1.5244309711912E+00  1.1118694251702E+00  4.5534325671192E-01
56  5.5000000000000E-01 -1.4851225215039E+00  1.0722558476955E+00  5.6595012615557E-01
57  5.6000000000000E-01 -1.4341462920865E+00  1.0321577164357E+00  6.7993750739373E-01
58  5.7000000000000E-01 -1.3717949790218E+00  9.9168588029934E-01  7.9709499485588E-01
59  5.8000000000000E-01 -1.2984944515403E+00  9.5095030887929E-01  9.1706145922138E-01
60  5.9000000000000E-01 -1.2148163455573E+00  9.1006041969297E-01  1.0392938610495E+00
61  6.0000000000000E-01 -1.1214877826464E+00  8.6912535849484E-01  1.1630420566829E+00
62  6.1000000000000E-01 -1.0193973372510E+00  8.2825420508865E-01  1.2873313902048E+00
63  6.2000000000000E-01 -9.0959648435682E-01  7.8755607959479E-01  1.4109546053269E+00
64  6.3000000000000E-01 -7.9329591089097E-01  7.4714012782958E-01  1.5324742688811E+00
65  6.4000000000000E-01 -6.7185626151981E-01  7.0711536920897E-01  1.6502364852071E+00
66  6.5000000000000E-01 -5.4677310623013E-01  6.6759039622493E-01  1.7623962139110E+00
67  6.6000000000000E-01 -4.1965615447527E-01  6.2867292084709E-01  1.8669540008823E+00
68  6.7000000000000E-01 -2.9220298894734E-01  5.9046916992412E-01  1.9618034150091E+00
69  6.8000000000000E-01 -1.6616784057956E-01  5.5308313852825E-01  2.0447879730182E+00
70  6.9000000000000E-01 -4.3326164218658E-02  5.1661571691410E-01  2.1137658550103E+00
71  7.0000000000000E-01  7.4564009273001E-02  4.8116371306466E-01  2.1666802856767E+00
72  7.1000000000000E-01  1.8580278417086E-01  4.4681879839528E-01  2.2016331015138E+00
73  7.2000000000000E-01  2.8878987028451E-01  4.1366640883111E-01  2.2169587605856E+00
74  7.3000000000000E-01  3.8206541337578E-01  3.8178463694565E-01  2.2112958932481E+00
75  7.4000000000000E-01  4.6434874533226E-01  3.5124315297876E-01  2.1836534501860E+00
76  7.5000000000000E-01  5.3457363043809E-01  3.2210219322199E-01  2.1334685838923E+00
77  7.6000000000000E-01  5.9191865939599E-01  2.9441165341176E-01  2.0606536019329E+00
78  7.7000000000000E-01  6.3583157524772E-01  2.6821032241160E-01  1.9656296501696E+00
79  7.8000000000000E-01  6.6604650099452E-01  2.4352528766577E-01  1.8493452115777E+00
80  7.9000000000000E-01  6.8259327098220E-01  2.2037153880209E-01  1.7132780261833E+00
81  8.0000000000000E-01  6.8579833828365E-01  1.9875178954519E-01  1.5594196304019E+00
82  8.1000000000000E-01  6.7627702772374E-01  1.7865653101712E-01  1.3902423562277E+00
83  8.2000000000000E-01  6.5491721670694E-01  1.6006432183702E-01  1.2086492959533E+00
84  8.3000000000000E-01  6.2285484051945E-01  1.4294231250082E-01  1.0179083983090E+00
85  8.4000000000000E-01  5.8144192168907E-01  1.2724699366017E-01  8.2157248825643E-01
86  8.5000000000000E-01  5.3220810089239E-01  1.1292515046085E-01  6.2338756701536E-01
87  8.6000000000000E-01  4.7681688712341E-01  9.9914998369244E-02  4.2719222493542E-01
88  8.7000000000000E-01  4.1701803602794E-01  8.8147470206285E-02  2.3681136431059E-01
89  8.8000000000000E-01  3.5459759798625E-01  7.7547619677851E-02  5.5947663136185E-02
90  8.9000000000000E-01  2.9132724453944E-01  6.8036103742564E-02 -1.1192569976321E-01
91  9.0000000000000E-01  2.2891447865494E-01  5.9530704832786E-02 -2.6366760086694E-01
92  9.1000000000000E-01  1.6895525966281E-01  5.1947854314218E-02 -3.9656356904969E-01
93  9.2000000000000E-01  1.1289042906740E-01  4.5204120631326E-02 -5.0840954941898E-01
94  9.3000000000000E-01  6.1967113627912E-02  3.9217629262494E-02 -5.9758246301179E-01
95  9.4000000000000E-01  1.7206014794749E-02  3.3909386750397E-02 -6.6309581413869E-01
96  9.5000000000000E-01 -2.0624820801283E-02  2.9204487462802E-02 -7.0463931557183E-01
97  9.6000000000000E-01 -5.1029503945934E-02  2.5033189103245E-02 -7.2260228771699E-01
98  9.7000000000000E-01 -7.3797201343661E-02  2.1331851005023E-02 -7.1808140915751E-01
99  9.8000000000000E-01 -8.9008926061874E-02  1.8043737558998E-02 -6.9287421902021E-01
100  9.9000000000000E-01 -9.7039079417126E-02  1.5119697406932E-02 -6.4946056720528E-01
101  1.0000000000000E+00 -9.8552860779594E-02  1.2518735423395E-02 -5.9097469780997E-01
102  1.0100000000000E+00 -9.4500251018515E-02  1.0208488595124E-02 -5.2116916080027E-01
103  1.0200000000000E+00 -8.6056406523195E-02  8.1646841029249E-03 -4.4422075758980E-01
104  1.0300000000000E+00 -7.4479027261586E-02  6.3690339255565E-03 -3.6430620998977E-01
105  1.0400000000000E+00 -6.1031412694816E-02  4.8082365147138E-03 -2.8539694355489E-01
106  1.0500000000000E+00 -4.6932274859653E-02  3.4732188716451E-03 -2.1113958909204E-01
107  1.0600000000000E+00 -3.3253363096088E-02  2.3479865683363E-03 -1.4467747125526E-01
108  1.0700000000000E+00 -2.0972888248479E-02  1.4301486902621E-03 -8.8669371939535E-02
109  1.0800000000000E+00 -1.0973918335119E-02  7.3070246237759E-04 -4.5261731570808E-02
110  1.0900000000000E+00 -3.9536789343189E-03  2.5970432730310E-04 -1.5959678327125E-02
111  1.1000000000000E+00 -4.1943742713117E-04  2.7446854005869E-05 -1.6609790450251E-03
112  1.1100000000000E+00  1.5635922173826E-05 -1.0201775870538E-06  6.1160072829212E-05
113  1.1200000000000E+00  1.9218003950851E-06 -1.2553485898221E-07  7.6385632376745E-06
114  1.13 -0. -0. -0.
115  1.14  0.  0.  0.
116  1.15  0.  0.  0.
117  1.16  0.  0.  0.
118  1.17  0.  0.  0.
119  1.18  0.  0.  0.
120  1.19  0.  0.  0.
121  1.20  0.  0.  0.
122  1.21  0.  0.  0.
123  1.22  0.  0.  0.
124  1.23  0.  0.  0.
125  1.24  0.  0.  0.
126  1.25  0.  0.  0.
127  1.26  0.  0.  0.
128  1.27  0.  0.  0.
129  1.28  0.  0.  0.
130  1.29  0.  0.  0.
131  1.30  0.  0.  0.
132  1.31  0.  0.  0.
133  1.32  0.  0.  0.
134  1.33  0.  0.  0.
135  1.34  0.  0.  0.
136  1.35  0.  0.  0.
137  1.36  0.  0.  0.
138  1.37  0.  0.  0.
139  1.38  0.  0.  0.
140  1.39  0.  0.  0.
141  1.40  0.  0.  0.
142  1.41  0.  0.  0.
143  1.42  0.  0.  0.
144  1.43  0.  0.  0.
145  1.44  0.  0.  0.
146  1.45  0.  0.  0.
147  1.46  0.  0.  0.
148  1.47  0.  0.  0.
149  1.48  0.  0.  0.
150  1.49  0.  0.  0.
151  1.50  0.  0.  0.
152  1.51  0.  0.  0.
153  1.52  0.  0.  0.
154  1.53  0.  0.  0.
155  1.54  0.  0.  0.
156  1.55  0.  0.  0.
157  1.56  0.  0.  0.
158  1.57  0.  0.  0.
159  1.58  0.  0.  0.
160  1.59  0.  0.  0.
161  1.60  0.  0.  0.
162  1.61  0.  0.  0.
163  1.62  0.  0.  0.
164  1.63  0.  0.  0.
165  1.64  0.  0.  0.
166  1.65  0.  0.  0.
167  1.66  0.  0.  0.
168  1.67  0.  0.  0.
169  1.68  0.  0.  0.
170  1.69  0.  0.  0.
171  1.70  0.  0.  0.
172  1.71  0.  0.  0.
173  1.72  0.  0.  0.
174  1.73  0.  0.  0.
175  1.74  0.  0.  0.
176  1.75  0.  0.  0.
177  1.76  0.  0.  0.
178  1.77  0.  0.  0.
179  1.78  0.  0.  0.
180  1.79  0.  0.  0.
181  1.80  0.  0.  0.
182  1.81  0.  0.  0.
183  1.82  0.  0.  0.
184  1.83  0.  0.  0.
185  1.84  0.  0.  0.
186  1.85  0.  0.  0.
187  1.86  0.  0.  0.
188  1.87  0.  0.  0.
189  1.88  0.  0.  0.
190  1.89  0.  0.  0.
191  1.90  0.  0.  0.
192  1.91  0.  0.  0.
193  1.92  0.  0.  0.
194  1.93  0.  0.  0.
195  1.94  0.  0.  0.
196  1.95  0.  0.  0.
197  1.96  0.  0.  0.
198  1.97  0.  0.  0.
199  1.98  0.  0.  0.
200  1.99  0.  0.  0.
201  2.00  0.  0.  0.
202  2.01  0.  0.  0.
203  2.02  0.  0.  0.
204  2.03  0.  0.  0.
205  2.04  0.  0.  0.
206  2.05  0.  0.  0.
207  2.06  0.  0.  0.
208  2.07  0.  0.  0.
209  2.08  0.  0.  0.
210  2.09  0.  0.  0.
211  2.10  0.  0.  0.
212  2.11  0.  0.  0.
213  2.12  0.  0.  0.
214  2.13  0.  0.  0.
215  2.14  0.  0.  0.
216  2.15  0.  0.  0.
217  2.16  0.  0.  0.
218  2.17  0.  0.  0.
219  2.18  0.  0.  0.
220  2.19  0.  0.  0.
221  2.20  0.  0.  0.
222  2.21  0.  0.  0.
223  2.22  0.  0.  0.
224  2.23  0.  0.  0.
225  2.24  0.  0.  0.
226  2.25  0.  0.  0.
227  2.26  0.  0.  0.
228  2.27  0.  0.  0.
229  2.28  0.  0.  0.
230  2.29  0.  0.  0.
231  2.30  0.  0.  0.
232  2.31  0.  0.  0.
233  2.32  0.  0.  0.
234  2.33  0.  0.  0.
235  2.34  0.  0.  0.
236  2.35  0.  0.  0.
237  2.36  0.  0.  0.
238  2.37  0.  0.  0.
239  2.38  0.  0.  0.
240  2.39  0.  0.  0.
241  2.40  0.  0.  0.
242  2.41  0.  0.  0.
243  2.42  0.  0.  0.
244  2.43  0.  0.  0.
245  2.44  0.  0.  0.
246  2.45  0.  0.  0.
247  2.46  0.  0.  0.
248  2.47  0.  0.  0.
249  2.48  0.  0.  0.
250  2.49  0.  0.  0.
251  2.50  0.  0.  0.
252  2.51  0.  0.  0.
253  2.52  0.  0.  0.
254  2.53  0.  0.  0.
255  2.54  0.  0.  0.
256  2.55  0.  0.  0.
257  2.56  0.  0.  0.
258  2.57  0.  0.  0.
259  2.58  0.  0.  0.
260  2.59  0.  0.  0.
261  2.60  0.  0.  0.
262  2.61  0.  0.  0.
263  2.62  0.  0.  0.
264  2.63  0.  0.  0.
265  2.64  0.  0.  0.
266  2.65  0.  0.  0.
267  2.66  0.  0.  0.
268  2.67  0.  0.  0.
269  2.68  0.  0.  0.
270  2.69  0.  0.  0.
271  2.70  0.  0.  0.
272  2.71  0.  0.  0.
273  2.72  0.  0.  0.
274  2.73  0.  0.  0.
275  2.74  0.  0.  0.
276  2.75  0.  0.  0.
277  2.76  0.  0.  0.
278  2.77  0.  0.  0.
279  2.78  0.  0.  0.
280  2.79  0.  0.  0.
281  2.80  0.  0.  0.
282  2.81  0.  0.  0.
283  2.82  0.  0.  0.
284  2.83  0.  0.  0.
285  2.84  0.  0.  0.
286  2.85  0.  0.  0.
287  2.86  0.  0.  0.
288  2.87  0.  0.  0.
289  2.88  0.  0.  0.
290  2.89  0.  0.  0.
291  2.90  0.  0.  0.
292  2.91  0.  0.  0.
293  2.92  0.  0.  0.
294  2.93  0.  0.  0.
295  2.94  0.  0.  0.
296  2.95  0.  0.  0.
297  2.96  0.  0.  0.
298  2.97  0.  0.  0.
299  2.98  0.  0.  0.
300  2.99  0.  0.  0.
301  3.00  0.  0.  0.
302  3.01  0.  0.  0.
303  3.02  0.  0.  0.
304  3.03  0.  0.  0.
305  3.04  0.  0.  0.
306  3.05  0.  0.  0.
307  3.06  0.  0.  0.
308  3.07  0.  0.  0.
309  3.08  0.  0.  0.
310  3.09  0.  0.  0.
311  3.10  0.  0.  0.
312  3.11  0.  0.  0.
313  3.12  0.  0.  0.
314  3.13  0.  0.  0.
315  3.14  0.  0.  0.
316  3.15  0.  0.  0.
317  3.16  0.  0.  0.
318  3.17  0.  0.  0.
319  3.18  0.  0.  0.
320  3.19  0.  0.  0.
321  3.20  0.  0.  0.
322  3.21  0.  0.  0.
323  3.22  0.  0.  0.
324  3.23  0.  0.  0.
325  3.24  0.  0.  0.
326  3.25  0.  0.  0.
327  3.26  0.  0.  0.
328  3.27  0.  0.  0.
329  3.28  0.  0.  0.
330  3.29  0.  0.  0.
331  3.30  0.  0.  0.
332  3.31  0.  0.  0.
333  3.32  0.  0.  0.
334  3.33  0.  0.  0.
335  3.34  0.  0.  0.
336  3.35  0.  0.  0.
337  3.36  0.  0.  0.
338  3.37  0.  0.  0.
339  3.38  0.  0.  0.
340  3.39  0.  0.  0.
341  3.40  0.  0.  0.
342  3.41  0.  0.  0.
343  3.42  0.  0.  0.
344  3.43  0.  0.  0.
345  3.44  0.  0.  0.
346  3.45  0.  0.  0.
347  3.46  0.  0.  0.
348  3.47  0.  0.  0.
349  3.48  0.  0.  0.
350  3.49  0.  0.  0.
351  3.50  0.  0.  0.
352  3.51  0.  0.  0.
353  3.52  0.  0.  0.
354  3.53  0.  0.  0.
355  3.54  0.  0.  0.
356  3.55  0.  0.  0.
357  3.56  0.  0.  0.
358  3.57  0.  0.  0.
359  3.58  0.  0.  0.
360  3.59  0.  0.  0.
361  3.60  0.  0.  0.
362  3.61  0.  0.  0.
363  3.62  0.  0.  0.
364  3.63  0.  0.  0.
365  3.64  0.  0.  0.
366  3.65  0.  0.  0.
367  3.66  0.  0.  0.
368  3.67  0.  0.  0.
369  3.68  0.  0.  0.
370  3.69  0.  0.  0.
371  3.70  0.  0.  0.
372  3.71  0.  0.  0.
373  3.72  0.  0.  0.
374  3.73  0.  0.  0.
375  3.74  0.  0.  0.
376  3.75  0.  0.  0.
377  3.76  0.  0.  0.
378  3.77  0.  0.  0.
379  3.78  0.  0.  0.
380  3.79  0.  0.  0.
381  3.80  0.  0.  0.
382  3.81  0.  0.  0.
383  3.82  0.  0.  0.
384  3.83  0.  0.  0.
385  3.84  0.  0.  0.
386  3.85  0.  0.  0.
387  3.86  0.  0.  0.
388  3.87  0.  0.  0.
389  3.88  0.  0.  0.
390  3.89  0.  0.  0.
391  3.90  0.  0.  0.
392  3.91  0.  0.  0.
393  3.92  0.  0.  0.
394  3.93  0.  0.  0.
395  3.94  0.  0.  0.
396  3.95  0.  0.  0.
397  3.96  0.  0.  0.
398  3.97  0.  0.  0.
399  3.98  0.  0.  0.
400  3.99  0.  0.  0.
401  4.00  0.  0.  0.
402  4.01  0.  0.  0.
403  4.02  0.  0.  0.
404  4.03  0.  0.  0.
405  4.04  0.  0.  0.
406  4.05  0.  0.  0.
407  4.06  0.  0.  0.
408  4.07  0.  0.  0.
409  4.08  0.  0.  0.
410  4.09  0.  0.  0.
411  4.10  0.  0.  0.
412  4.11  0.  0.  0.
413  4.12  0.  0.  0.
414  4.13  0.  0.  0.
415  4.14  0.  0.  0.
416  4.15  0.  0.  0.
417  4.16  0.  0.  0.
418  4.17  0.  0.  0.
419  4.18  0.  0.  0.
420  4.19  0.  0.  0.
421  4.20  0.  0.  0.
422  4.21  0.  0.  0.
423  4.22  0.  0.  0.
424  4.23  0.  0.  0.
425  4.24  0.  0.  0.
426  4.25  0.  0.  0.
427  4.26  0.  0.  0.
428  4.27  0.  0.  0.
429  4.28  0.  0.  0.
430  4.29  0.  0.  0.
431  4.30  0.  0.  0.
432  4.31  0.  0.  0.
433  4.32  0.  0.  0.
434  4.33  0.  0.  0.
435  4.34  0.  0.  0.
436  4.35  0.  0.  0.
437  4.36  0.  0.  0.
438  4.37  0.  0.  0.
439  4.38  0.  0.  0.
440  4.39  0.  0.  0.
441  4.40  0.  0.  0.
442  4.41  0.  0.  0.
443  4.42  0.  0.  0.
444  4.43  0.  0.  0.
445  4.44  0.  0.  0.
446  4.45  0.  0.  0.
447  4.46  0.  0.  0.
448  4.47  0.  0.  0.
449  4.48  0.  0.  0.
450  4.49  0.  0.  0.
451  4.50  0.  0.  0.
452  4.51  0.  0.  0.
453  4.52  0.  0.  0.
454  4.53  0.  0.  0.
455  4.54  0.  0.  0.
456  4.55  0.  0.  0.
457  4.56  0.  0.  0.
458  4.57  0.  0.  0.
459  4.58  0.  0.  0.
460  4.59  0.  0.  0.
461  4.60  0.  0.  0.
462  4.61  0.  0.  0.
463  4.62  0.  0.  0.
464  4.63  0.  0.  0.
465  4.64  0.  0.  0.
466  4.65  0.  0.  0.
467  4.66  0.  0.  0.
468  4.67  0.  0.  0.
469  4.68  0.  0.  0.
470  4.69  0.  0.  0.
471  4.70  0.  0.  0.
472  4.71  0.  0.  0.
473  4.72  0.  0.  0.
474  4.73  0.  0.  0.
475  4.74  0.  0.  0.
476  4.75  0.  0.  0.
477  4.76  0.  0.  0.
478  4.77  0.  0.  0.
479  4.78  0.  0.  0.
480  4.79  0.  0.  0.
481  4.80  0.  0.  0.
482  4.81  0.  0.  0.
483  4.82  0.  0.  0.
484  4.83  0.  0.  0.
485  4.84  0.  0.  0.
486  4.85  0.  0.  0.
487  4.86  0.  0.  0.
488  4.87  0.  0.  0.
489  4.88  0.  0.  0.
490  4.89  0.  0.  0.
491  4.90  0.  0.  0.
492  4.91  0.  0.  0.
493  4.92  0.  0.  0.
494  4.93  0.  0.  0.
495  4.94  0.  0.  0.
496  4.95  0.  0.  0.
497  4.96  0.  0.  0.
498  4.97  0.  0.  0.
499  4.98  0.  0.  0.
500  4.99  0.  0.  0.
501  5.00  0.  0.  0.
502  5.01  0.  0.  0.
503  5.02  0.  0.  0.
504  5.03  0.  0.  0.
505  5.04  0.  0.  0.
506  5.05  0.  0.  0.
507  5.06  0.  0.  0.
508  5.07  0.  0.  0.
509  5.08  0.  0.  0.
510  5.09  0.  0.  0.
511  5.10  0.  0.  0.
512  5.11  0.  0.  0.
513  5.12  0.  0.  0.
514  5.13  0.  0.  0.
515  5.14  0.  0.  0.
516  5.15  0.  0.  0.
517  5.16  0.  0.  0.
518  5.17  0.  0.  0.
519  5.18  0.  0.  0.
520  5.19  0.  0.  0.
521  5.20  0.  0.  0.
522  5.21  0.  0.  0.
523  5.22  0.  0.  0.
524  5.23  0.  0.  0.
525  5.24  0.  0.  0.
526  5.25  0.  0.  0.
527  5.26  0.  0.  0.
528  5.27  0.  0.  0.
529  5.28  0.  0.  0.
530  5.29  0.  0.  0.
531  5.30  0.  0.  0.
532  5.31  0.  0.  0.
533  5.32  0.  0.  0.
534  5.33  0.  0.  0.
535  5.34  0.  0.  0.
536  5.35  0.  0.  0.
537  5.36  0.  0.  0.
538  5.37  0.  0.  0.
539  5.38  0.  0.  0.
540  5.39  0.  0.  0.
541  5.40  0.  0.  0.
542  5.41  0.  0.  0.
543  5.42  0.  0.  0.
544  5.43  0.  0.  0.
545  5.44  0.  0.  0.
546  5.45  0.  0.  0.
547  5.46  0.  0.  0.
548  5.47  0.  0.  0.
549  5.48  0.  0.  0.
550  5.49  0.  0.  0.
551  5.50  0.  0.  0.
552  5.51  0.  0.  0.
553  5.52  0.  0.  0.
554  5.53  0.  0.  0.
555  5.54  0.  0.  0.
556  5.55  0.  0.  0.
557  5.56  0.  0.  0.
558  5.57  0.  0.  0.
559  5.58  0.  0.  0.
560  5.59  0.  0.  0.
561  5.60  0.  0.  0.
562  5.61  0.  0.  0.
563  5.62  0.  0.  0.
564  5.63  0.  0.  0.
565  5.64  0.  0.  0.
566  5.65  0.  0.  0.
567  5.66  0.  0.  0.
568  5.67  0.  0.  0.
569  5.68  0.  0.  0.
570  5.69  0.  0.  0.
571  5.70  0.  0.  0.
572  5.71  0.  0.  0.
573  5.72  0.  0.  0.
574  5.73  0.  0.  0.
575  5.74  0.  0.  0.
576  5.75  0.  0.  0.
577  5.76  0.  0.  0.
578  5.77  0.  0.  0.
579  5.78  0.  0.  0.
580  5.79  0.  0.  0.
581  5.80  0.  0.  0.
582  5.81  0.  0.  0.
583  5.82  0.  0.  0.
584  5.83  0.  0.  0.
585  5.84  0.  0.  0.
586  5.85  0.  0.  0.
587  5.86  0.  0.  0.
588  5.87  0.  0.  0.
589  5.88  0.  0.  0.
590  5.89  0.  0.  0.
591  5.90  0.  0.  0.
592  5.91  0.  0.  0.
593  5.92  0.  0.  0.
594  5.93  0.  0.  0.
595  5.94  0.  0.  0.
596  5.95  0.  0.  0.
597  5.96  0.  0.  0.
598  5.97  0.  0.  0.
599  5.98  0.  0.  0.
600  5.99  0.  0.  0.
1                        -9.1699459406748E+00  2.0638186600111E+00
1  0.0000000000000E+00  1.3468034465447E-08  2.3724775163880E-07
2  1.0000000000000E-02  3.1247139964693E-03  2.1239616889261E-03
3  2.0000000000000E-02  1.2470925518038E-02  8.3778895936045E-03
4  3.0000000000000E-02  2.7955234129944E-02  1.8412390364732E-02
5  4.0000000000000E-02  4.9439933430798E-02  3.1659898820319E-02
6  5.0000000000000E-02  7.6734921651156E-02  4.7356225122399E-02
7  6.0000000000000E-02  1.0960031573339E-01  6.4569568076852E-02
8  7.0000000000000E-02  1.4774971046223E-01  8.2235897029350E-02
9  8.0000000000000E-02  1.9085401074730E-01  9.9199367582663E-02
10  9.0000000000000E-02  2.3854575394196E-01  1.1425625199946E-01
11  1.0000000000000E-01  2.9042383043858E-01  1.2620074082376E-01
12  1.1000000000000E-01  3.4605850493429E-01  1.3387091262699E-01
13  1.2000000000000E-01  4.0499663783626E-01  1.3619317589484E-01
14  1.3000000000000E-01  4.6676700628701E-01  1.3222356022734E-01
15  1.4000000000000E-01  5.3088562714741E-01  1.2118436985458E-01
16  1.5000000000000E-01  5.9686098978703E-01  1.0249490506733E-01
17  1.6000000000000E-01  6.6419911441512E-01  7.5795198342563E-02
18  1.7000000000000E-01  7.3240836157726E-01  4.0961991594757E-02
19  1.8000000000000E-01  8.0100392991720E-01 -1.8835125075320E-03
20  1.9000000000000E-01  8.6951199188733E-01 -5.2376271485172E-02
21  2.0000000000000E-01  9.3747343028616E-01 -1.0991622072528E-01
22  2.1000000000000E-01  1.0044471518030E+00 -1.7368480245198E-01
23  2.2000000000000E-01  1.0700129666668E+00 -2.4266843503168E-01
24  2.3000000000000E-01  1.1337740355734E+00 -3.1568790186667E-01
25  2.4000000000000E-01  1.1953588958929E+00 -3.9143243484719E-01
26  2.5000000000000E-01  1.2544230884048E+00 -4.6849711634427E-01
27  2.6000000000000E-01  1.3106504132038E+00 -5.4542213155504E-01
28  2.7000000000000E-01  1.3637538487974E+00 -6.2073237267458E-01
29  2.8000000000000E-01  1.4134761716943E+00 -6.9297592828583E-01
30  2.9000000000000E-01  1.4595903149740E+00 -7.6076008333963E-01
31  3.0000000000000E-01  1.5018995035386E+00 -8.2278360245923E-01
32  3.1000000000000E-01  1.5402372011589E+00 -8.7786426507299E-01
33  3.2000000000000E-01  1.5744669003153E+00 -9.2496085610651E-01
34  3.3000000000000E-01  1.6044817805023E+00 -9.6318908009709E-01
35  3.4000000000000E-01  1.6302042545038E+00 -9.9183114793682E-01
36  3.5000000000000E-01  1.6515854155319E+00 -1.0103390716546E+00
37  3.6000000000000E-01  1.6686043914786E+00 -1.0183319812334E+00
38  3.7000000000000E-01  1.6812676062413E+00 -1.0155880363372E+00
39  3.8000000000000E-01  1.6896079425331E+00 -1.0020317338085E+00
40  3.9000000000000E-01  1.6936837960972E+00 -9.7771759905656E-01
41  4.0000000000000E-01  1.6935780080906E+00 -9.4281138795498E-01
42  4.1000000000000E-01  1.6893966607816E+00 -8.9757000965825E-01
43  4.2000000000000E-01  1.6812677217443E+00 -8.4232140626416E-01
44  4.3000000000000E-01  1.6693395234707E+00 -7.7744559143389E-01
45  4.4000000000000E-01  1.6537790687070E+00 -7.0335795844145E-01
46  4.5000000000000E-01  1.6347701567287E+00 -6.2049582267584E-01
47  4.6000000000000E-01  1.6125113319802E+00 -5.2930897073160E-01
48  4.7000000000000E-01  1.5872136637474E+00 -4.3025475636201E-01
49  4.8000000000000E-01  1.5590983734599E+00 -3.2379802295602E-01
50  4.9000000000000E-01  1.5283943344504E+00 -2.1041585439563E-01
51  5.0000000000000E-01  1.4953354771282E+00 -9.0606873596546E-02
52  5.1000000000000E-01  1.4601581401187E+00  3.5095466479896E-02
53  5.2000000000000E-01  1.4230984145871E+00  1.6610640839309E-01
54  5.3000000000000E-01  1.3843895342984E+00  3.0177126264693E-01
55  5.4000000000000E-01  1.3442593676461E+00  4.4134583512297E-01
56  5.5000000000000E-01  1.3029280696125E+00  5.8397724311227E-01
57  5.6000000000000E-01  1.2606059512150E+00  7.2868651950499E-01
58  5.7000000000000E-01  1.2174916213100E+00  8.7435440655606E-01
59  5.8000000000000E-01  1.1737704506583E+00  1.0197116763558E+00
60  5.9000000000000E-01  1.1296134009518E+00  1.1633351854130E+00
61  6.0000000000000E-01  1.0851762522544E+00  1.3036506790842E+00
62  6.1000000000000E-01  1.0405992512493E+00  1.4389431141210E+00
63  6.2000000000000E-01  9.9600719018538E-01  1.5673749730320E+00
64  6.3000000000000E-01  9.5150991287022E-01  1.6870127131102E+00
65  6.4000000000000E-01  9.0720322996717E-01  1.7958611385506E+00
66  6.5000000000000E-01  8.6317021172363E-01  1.8919051200763E+00
67  6.6000000000000E-01  8.1948281264319E-01  1.9731577277492E+00
68  6.7000000000000E-01  7.7620377005452E-01  2.0377135042215E+00
69  6.8000000000000E-01  7.3338870755420E-01  2.0838053022988E+00
70  6.9000000000000E-01  6.9108836539330E-01  2.1098628560948E+00
71  7.0000000000000E-01  6.4935087345966E-01  2.1145710614749E+00
72  7.1000000000000E-01  6.0822397892276E-01  2.0969258190760E+00
73  7.2000000000000E-01  5.6775714009813E-01  2.0562852495873E+00
74  7.3000000000000E-01  5.2800340078928E-01  1.9924141309173E+00
75  7.4000000000000E-01  4.8902096528908E-01  1.9055195319072E+00
76  7.5000000000000E-01  4.5087440326357E-01  1.7962758256335E+00
77  7.6000000000000E-01  4.1363542566174E-01  1.6658375519232E+00
78  7.7000000000000E-01  3.7738318724502E-01  1.5158389551041E+00
79  7.8000000000000E-01  3.4220408784699E-01  1.3483794378675E+00
80  7.9000000000000E-01  3.0819106249921E-01  1.1659946313014E+00
81  8.0000000000000E-01  2.7544236945916E-01  9.7161326846820E-01
82  8.1000000000000E-01  2.4405990426308E-01  7.6850054647083E-01
83  8.2000000000000E-01  2.1414708648065E-01  5.6018915094991E-01
84  8.3000000000000E-01  1.8580638315090E-01  3.5039957838436E-01
85  8.4000000000000E-01  1.5913654823320E-01  1.4295180683632E-01
86  8.5000000000000E-01  1.3422967017327E-01 -5.8329282346623E-02
87  8.6000000000000E-01  1.1116812930104E-01 -2.4971205620257E-01
88  8.7000000000000E-01  9.0021572787960E-02 -4.2765699773869E-01
89  8.8000000000000E-01  7.0844016967587E-02 -5.8891335098395E-01
90  8.9000000000000E-01  5.3671184776111E-02 -7.3061063064156E-01
91  9.0000000000000E-01  3.8518179866286E-02 -8.5034221736964E-01
92  9.1000000000000E-01  2.5377588718181E-02 -9.4623849943018E-01
93  9.2000000000000E-01  1.4218088096061E-02 -1.0170273604149E+00
94  9.3000000000000E-01  4.9836179264337E-03 -1.0620802401848E+00
95  9.4000000000000E-01 -2.4068403258595E-03 -1.0814424976819E+00
96  9.5000000000000E-01 -8.0588617277650E-03 -1.0758473622027E+00
97  9.6000000000000E-01 -1.2101557591223E-02 -1.0467133538682E+00
98  9.7000000000000E-01 -1.4685965639541E-02 -9.9612566202097E-01
99  9.8000000000000E-01 -1.5982902535746E-02 -9.2680256950175E-01
100  9.9000000000000E-01 -1.6180352534581E-02 -8.4204858354115E-01
101  1.0000000000000E+00 -1.5480478800287E-02 -7.4569622444874E-01
102  1.0100000000000E+00 -1.4096300287944E-02 -6.4203685632250E-01
103  1.0200000000000E+00 -1.2243809781691E-02 -5.3560009898886E-01
104  1.0300000000000E+00 -1.0127728183676E-02 -4.3073266426165E-01
105  1.0400000000000E+00 -7.9338465643276E-03 -3.3140672889063E-01
106  1.0500000000000E+00 -5.8239948988805E-03 -2.4110986335809E-01
107  1.0600000000000E+00 -3.9269360858336E-03 -1.6248971356348E-01
108  1.0700000000000E+00 -2.3472437872287E-03 -9.7858142349809E-02
109  1.0800000000000E+00 -1.1577588979751E-03 -4.9037747215687E-02
110  1.0900000000000E+00 -3.9037175547307E-04 -1.6954301125011E-02
111  1.1000000000000E+00 -3.8339576656160E-05 -1.7272095477148E-03
112  1.1100000000000E+00  1.3520895404381E-06  6.2596669555416E-05
113  1.1200000000000E+00  1.7855184757709E-07  7.9713501272453E-06
114  1.13  0.  0.
115  1.14  0.  0.
116  1.15  0.  0.
117  1.16  0.  0.
118  1.17  0.  0.
119  1.18  0.  0.
120  1.19  0.  0.
121  1.20  0.  0.
122  1.21  0.  0.
123  1.22  0.  0.
124  1.23  0.  0.
125  1.24  0.  0.
126  1.25  0.  0.
127  1.26  0.  0.
128  1.27  0.  0.
129  1.28  0.  0.
130  1.29  0.  0.
131  1.30  0.  0.
132  1.31  0.  0.
133  1.32  0.  0.
134  1.33  0.  0.
135  1.34  0.  0.
136  1.35  0.  0.
137  1.36  0.  0.
138  1.37  0.  0.
139  1.38  0.  0.
140  1.39  0.  0.
141  1.40  0.  0.
142  1.41  0.  0.
143  1.42  0.  0.
144  1.43  0.  0.
145  1.44  0.  0.
146  1.45  0.  0.
147  1.46  0.  0.
148  1.47  0.  0.
149  1.48  0.  0.
150  1.49  0.  0.
151  1.50  0.  0.
152  1.51  0.  0.
153  1.52  0.  0.
154  1.53  0.  0.
155  1.54  0.  0.
156  1.55  0.  0.
157  1.56  0.  0.
158  1.57  0.  0.
159  1.58  0.  0.
160  1.59  0.  0.
161  1.60  0.  0.
162  1.61  0.  0.
163  1.62  0.  0.
164  1.63  0.  0.
165  1.64  0.  0.
166  1.65  0.  0.
167  1.66  0.  0.
168  1.67  0.  0.
169  1.68  0.  0.
170  1.69  0.  0.
171  1.70  0.  0.
172  1.71  0.  0.
173  1.72  0.  0.
174  1.73  0.  0.
175  1.74  0.  0.
176  1.75  0.  0.
177  1.76  0.  0.
178  1.77  0.  0.
179  1.78  0.  0.
180  1.79  0.  0.
181  1.80  0.  0.
182  1.81  0.  0.
183  1.82  0.  0.
184  1.83  0.  0.
185  1.84  0.  0.
186  1.85  0.  0.
187  1.86  0.  0.
188  1.87  0.  0.
189  1.88  0.  0.
190  1.89  0.  0.
191  1.90  0.  0.
192  1.91  0.  0.
193  1.92  0.  0.
194  1.93  0.  0.
195  1.94  0.  0.
196  1.95  0.  0.
197  1.96  0.  0.