Lr    ONCVPSP-4.0.1  r_core=   1.10451   1.15174   1.15174   1.20099
103.0000     43.0000      220205    zatom,zion,pspd
8      11   3     4   600     0    pspcod,pspxc,lmax,lloc,mmax,r2well
5.99000000  4.12600000  0.00000000    rchrg fchrg qchrg
3     2     2     2     0    nproj
1     1           extension_switch
0                         1.2738069630175E+01 -7.6956242329484E+00 -1.5979450650821E+00
1  0.0000000000000E+00  7.3422499191622E-08  1.1841054470274E-08 -1.2183045077219E-06
2  1.0000000000000E-02  1.5653344207223E-01  4.2528681013472E-02  2.0722124133471E-01
3  2.0000000000000E-02  3.1215117281257E-01  8.5137587469217E-02  4.0818606909934E-01
4  3.0000000000000E-02  4.6593517099860E-01  1.2790398082186E-01  5.9685914022360E-01
5  4.0000000000000E-02  6.1696322311217E-01  1.7089928498455E-01  7.6763876239099E-01
6  5.0000000000000E-02  7.6430787544677E-01  2.1418639036926E-01  9.1555283192021E-01
7  6.0000000000000E-02  9.0703658770100E-01  2.5781721626336E-01  1.0364306396268E+00
8  7.0000000000000E-02  1.0442133970707E+00  3.0183060297225E-01  1.1270440149195E+00
9  8.0000000000000E-02  1.1749023284298E+00  3.4625059331712E-01  1.1852124966900E+00
10  9.0000000000000E-02  1.2981727004055E+00  3.9108514916905E-01  1.2098686468122E+00
11  1.0000000000000E-01  1.4131063826401E+00  4.3632533326799E-01  1.2010812003929E+00
12  1.1000000000000E-01  1.5188069602875E+00  4.8194497021660E-01  1.1600354124392E+00
13  1.2000000000000E-01  1.6144106620477E+00  5.2790078388694E-01  1.0889716460700E+00
14  1.3000000000000E-01  1.6990988120413E+00  5.7413299217138E-01  9.9108488492133E-01
15  1.4000000000000E-01  1.7721114777052E+00  6.2056632467056E-01  8.7038937628002E-01
16  1.5000000000000E-01  1.8327619094458E+00  6.6711141511878E-01  7.3155396089504E-01
17  1.6000000000000E-01  1.8804513063884E+00  7.1366650861387E-01  5.7971476682716E-01
18  1.7000000000000E-01  1.9146833989462E+00  7.6011941447163E-01  4.2027279408700E-01
19  1.8000000000000E-01  1.9350783151499E+00  8.0634962908815E-01  2.5868446137860E-01
20  1.9000000000000E-01  1.9413851949589E+00  8.5223054977752E-01  1.0025340574001E-01
21  2.0000000000000E-01  1.9334930355277E+00  8.9763170024478E-01 -5.0068286738366E-02
22  2.1000000000000E-01  1.9114392901364E+00  9.4242089111762E-01 -1.8786167914742E-01
23  2.2000000000000E-01  1.8754158029196E+00  9.8646624463789E-01 -3.0939841515938E-01
24  2.3000000000000E-01  1.8257717385201E+00  1.0296380209312E+00 -4.1176800610069E-01
25  2.4000000000000E-01  1.7630132575514E+00  1.0718101938566E+00 -4.9297024588163E-01
26  2.5000000000000E-01  1.6877997918601E+00  1.1128617368259E+00 -5.5196945526834E-01
27  2.6000000000000E-01  1.6009368841803E+00  1.1526775926499E+00 -5.8870880728424E-01
28  2.7000000000000E-01  1.5033656706878E+00  1.1911493158411E+00 -6.0408459378859E-01
29  2.8000000000000E-01  1.3961491978916E+00  1.2281753902908E+00 -5.9988189463472E-01
30  2.9000000000000E-01  1.2804558729668E+00  1.2636612392526E+00 -5.7867464120909E-01
31  3.0000000000000E-01  1.1575404449576E+00  1.2975189575430E+00 -5.4369446497845E-01
32  3.1000000000000E-01  1.0287229995431E+00  1.3296668072980E+00 -4.9867393411088E-01
33  3.2000000000000E-01  8.9536651904879E-01  1.3600285280669E+00 -4.4767076049440E-01
34  3.3000000000000E-01  7.5885360950593E-01  1.3885325191114E+00 -3.9488026853285E-01
35  3.4000000000000E-01  6.2056302594271E-01  1.4151109562677E+00 -3.4444383015182E-01
36  3.5000000000000E-01  4.8184663465240E-01  1.4396989074591E+00 -3.0026107373499E-01
37  3.6000000000000E-01  3.4400743667414E-01  1.4622335098929E+00 -2.6581346709304E-01
38  3.7000000000000E-01  2.0827924071673E-01  1.4826532682046E+00 -2.4400636719719E-01
39  3.8000000000000E-01  7.5808517636831E-02  1.5008975265212E+00 -2.3703584535819E-01
40  3.9000000000000E-01 -5.2361105525222E-02  1.5169061588814E+00 -2.4628556957540E-01
41  4.0000000000000E-01 -1.7530134326617E-01  1.5306195120479E+00 -2.7225779894904E-01
42  4.1000000000000E-01 -2.9220847361200E-01  1.5419786229192E+00 -3.1454116880022E-01
43  4.2000000000000E-01 -4.0240912624101E-01  1.5509257199871E+00 -3.7181647525236E-01
44  4.3000000000000E-01 -5.0536259207842E-01  1.5574050051192E+00 -4.4190016324547E-01
45  4.4000000000000E-01 -6.0065972320109E-01  1.5613636989045E+00 -5.2182374169516E-01
46  4.5000000000000E-01 -6.8801860132508E-01  1.5627533204156E+00 -6.0794595142340E-01
47  4.6000000000000E-01 -7.6727725463688E-01  1.5615311609915E+00 -6.9609324926058E-01
48  4.7000000000000E-01 -8.3838379272440E-01  1.5576619019926E+00 -7.8172309293213E-01
49  4.8000000000000E-01 -9.0138440478671E-01  1.5511193187710E+00 -8.6010365579436E-01
50  4.9000000000000E-01 -9.5640972464728E-01  1.5418880076514E+00 -9.2650299861723E-01
51  5.0000000000000E-01 -1.0036601055164E+00  1.5299650697151E+00 -9.7638039762484E-01
52  5.1000000000000E-01 -1.0433903668209E+00  1.5153616847297E+00 -1.0055724830464E+00
53  5.2000000000000E-01 -1.0758945743614E+00  1.4981045106806E+00 -1.0104670786363E+00
54  5.3000000000000E-01 -1.1014913939485E+00  1.4782368489250E+00 -9.8815813718998E-01
55  5.4000000000000E-01 -1.1205105186048E+00  1.4558195218349E+00 -9.3657591712512E-01
56  5.5000000000000E-01 -1.1332806121809E+00  1.4309314186394E+00 -8.5458750868929E-01
57  5.6000000000000E-01 -1.1401191401850E+00  1.4036696756721E+00 -7.4206395569153E-01
58  5.7000000000000E-01 -1.1413243746472E+00  1.3741494689822E+00 -5.9991148417322E-01
59  5.8000000000000E-01 -1.1371697671882E+00  1.3425034098325E+00 -4.3006569344815E-01
60  5.9000000000000E-01 -1.1279007866552E+00  1.3088805465071E+00 -2.3544893565411E-01
61  6.0000000000000E-01 -1.1137342183769E+00  1.2734449886330E+00 -1.9892455520324E-02
62  6.1000000000000E-01 -1.0948598249210E+00  1.2363741824086E+00  2.1197386743196E-01
63  6.2000000000000E-01 -1.0714441767012E+00  1.1978568763035E+00  4.5486018264497E-01
64  6.3000000000000E-01 -1.0436363781331E+00  1.1580908265708E+00  7.0297875896291E-01
65  6.4000000000000E-01 -1.0115753441325E+00  1.1172802999587E+00  9.5022373020570E-01
66  6.5000000000000E-01 -9.7539822499055E-01  1.0756334370777E+00  1.1903621531029E+00
67  6.6000000000000E-01 -9.3524953688677E-01  1.0333595437863E+00  1.4172297014655E+00
68  6.7000000000000E-01 -8.9129053176941E-01  9.9066637961010E-01  1.6249242326089E+00
69  6.8000000000000E-01 -8.4370833464413E-01  9.4775751159002E-01  1.8079906180038E+00
70  6.9000000000000E-01 -7.9272438843495E-01  9.0482979913476E-01  1.9615906192317E+00
71  7.0000000000000E-01 -7.3860177585508E-01  8.6207107057184E-01  2.0816521936843E+00
72  7.1000000000000E-01 -6.8165103287825E-01  8.1965804536968E-01  2.1649934055379E+00
73  7.2000000000000E-01 -6.2223412764690E-01  7.7775454770633E-01  2.2094170639911E+00
74  7.3000000000000E-01 -5.6076634971487E-01  7.3651004751423E-01  2.2137732750444E+00
75  7.4000000000000E-01 -4.9771593475957E-01  6.9605855468690E-01  2.1779882346415E+00
76  7.5000000000000E-01 -4.3360133639262E-01  6.5651788116777E-01  2.1030587675503E+00
77  7.6000000000000E-01 -3.6898614634110E-01  6.1798927453598E-01  1.9910132854041E+00
78  7.7000000000000E-01 -3.0447175390904E-01  5.8055741583159E-01  1.8448409580992E+00
79  7.8000000000000E-01 -2.4068792214361E-01  5.4429076407584E-01  1.6683919273123E+00
80  7.9000000000000E-01 -1.7828153854235E-01  5.0924222056231E-01  1.4662523054263E+00
81  8.0000000000000E-01 -1.1790386972878E-01  4.7545007779943E-01  1.2435984693074E+00
82  8.1000000000000E-01 -6.0196709891592E-02  4.4293921120042E-01  1.0060357537396E+00
83  8.2000000000000E-01 -5.7778599313694E-03  4.1172246641556E-01  7.5942705825799E-01
84  8.3000000000000E-01  4.4773593346922E-02  3.8180219169331E-01  5.0971709489932E-01
85  8.4000000000000E-01  9.0931712059417E-02  3.5317186289197E-01  2.6275802124588E-01
86  8.5000000000000E-01  1.3223736986170E-01  3.2581774873185E-01  2.4142028109308E-02
87  8.6000000000000E-01  1.6831067214551E-01  2.9972056551242E-01 -2.0095390451081E-01
88  8.7000000000000E-01  1.9886169538054E-01  2.7485707370204E-01 -4.0790638912079E-01
89  8.8000000000000E-01  2.2369915370221E-01  2.5120157337562E-01 -5.9276311790292E-01
90  8.9000000000000E-01  2.4273666066629E-01  2.2872726122926E-01 -7.5233620211075E-01
91  9.0000000000000E-01  2.5599632534262E-01  2.0740741861157E-01 -8.8426897853887E-01
92  9.1000000000000E-01  2.6360950240214E-01  1.8721640743249E-01 -9.8707482547754E-01
93  9.2000000000000E-01  2.6581460313796E-01  1.6813045868615E-01 -1.0601474877765E+00
94  9.3000000000000E-01  2.6295196580806E-01  1.5012824639675E-01 -1.1037433677292E+00
95  9.4000000000000E-01  2.5545587658552E-01  1.3319124781688E-01 -1.1189371675153E+00
96  9.5000000000000E-01  2.4384392400657E-01  1.1730389844192E-01 -1.1075531439918E+00
97  9.6000000000000E-01  2.2870395745110E-01  1.0245355764038E-01 -1.0720750348989E+00
98  9.7000000000000E-01  2.1067900130663E-01  8.8630307249838E-02 -1.0155384173357E+00
99  9.8000000000000E-01  1.9045054878018E-01  7.5826611201139E-02 -9.4140984949879E-01
100  9.9000000000000E-01  1.6872072070610E-01  6.4036868981026E-02 -8.5345761291710E-01
101  1.0000000000000E+00  1.4619382345594E-01  5.3256899441137E-02 -7.5561920750726E-01
102  1.0100000000000E+00  1.2355787478747E-01  4.3483394051503E-02 -6.5187095185320E-01
103  1.0200000000000E+00  1.0146668622732E-01  3.4713380159416E-02 -5.4610510622326E-01
104  1.0300000000000E+00  8.0523094135149E-02  2.6943736867282E-02 -4.4201976315119E-01
105  1.0400000000000E+00  6.1263925374530E-02  2.0170789879911E-02 -3.4302753300328E-01
106  1.0500000000000E+00  4.4147265203539E-02  1.4389939798178E-02 -2.5219409893175E-01
107  1.0600000000000E+00  2.9545503363289E-02  9.5889114873216E-03 -1.7256329630286E-01
108  1.0700000000000E+00  1.7734910807608E-02  5.7603258896960E-03 -1.0630851275080E-01
109  1.0800000000000E+00  8.8884746881849E-03  2.9035362788799E-03 -5.4901744911370E-02
110  1.0900000000000E+00  3.0813893667286E-03  1.0171951713152E-03 -1.9697516964666E-02
111  1.1000000000000E+00  3.1290453851686E-04  1.0489496536272E-04 -2.0808589956844E-03
112  1.1100000000000E+00 -1.1126285404374E-05 -3.7689740495437E-06  7.6035804923561E-05
113  1.1200000000000E+00 -1.4931746836988E-06 -4.9848216764347E-07  9.8481606990120E-06
114  1.13  0. -0. -0.
115  1.14  0.  0.  0.
116  1.15  0.  0.  0.
117  1.16  0.  0.  0.
118  1.17  0.  0.  0.
119  1.18  0.  0.  0.
120  1.19  0.  0.  0.
121  1.20  0.  0.  0.
122  1.21  0.  0.  0.
123  1.22  0.  0.  0.
124  1.23  0.  0.  0.
125  1.24  0.  0.  0.
126  1.25  0.  0.  0.
127  1.26  0.  0.  0.
128  1.27  0.  0.  0.
129  1.28  0.  0.  0.
130  1.29  0.  0.  0.
131  1.30  0.  0.  0.
132  1.31  0.  0.  0.
133  1.32  0.  0.  0.
134  1.33  0.  0.  0.
135  1.34  0.  0.  0.
136  1.35  0.  0.  0.
137  1.36  0.  0.  0.
138  1.37  0.  0.  0.
139  1.38  0.  0.  0.
140  1.39  0.  0.  0.
141  1.40  0.  0.  0.
142  1.41  0.  0.  0.
143  1.42  0.  0.  0.
144  1.43  0.  0.  0.
145  1.44  0.  0.  0.
146  1.45  0.  0.  0.
147  1.46  0.  0.  0.
148  1.47  0.  0.  0.
149  1.48  0.  0.  0.
150  1.49  0.  0.  0.
151  1.50  0.  0.  0.
152  1.51  0.  0.  0.
153  1.52  0.  0.  0.
154  1.53  0.  0.  0.
155  1.54  0.  0.  0.
156  1.55  0.  0.  0.
157  1.56  0.  0.  0.
158  1.57  0.  0.  0.
159  1.58  0.  0.  0.
160  1.59  0.  0.  0.
161  1.60  0.  0.  0.
162  1.61  0.  0.  0.
163  1.62  0.  0.  0.
164  1.63  0.  0.  0.
165  1.64  0.  0.  0.
166  1.65  0.  0.  0.
167  1.66  0.  0.  0.
168  1.67  0.  0.  0.
169  1.68  0.  0.  0.
170  1.69  0.  0.  0.
171  1.70  0.  0.  0.
172  1.71  0.  0.  0.
173  1.72  0.  0.  0.
174  1.73  0.  0.  0.
175  1.74  0.  0.  0.
176  1.75  0.  0.  0.
177  1.76  0.  0.  0.
178  1.77  0.  0.  0.
179  1.78  0.  0.  0.
180  1.79  0.  0.  0.
181  1.80  0.  0.  0.
182  1.81  0.  0.  0.
183  1.82  0.  0.  0.
184  1.83  0.  0.  0.
185  1.84  0.  0.  0.
186  1.85  0.  0.  0.
187  1.86  0.  0.  0.
188  1.87  0.  0.  0.
189  1.88  0.  0.  0.
190  1.89  0.  0.  0.
191  1.90  0.  0.  0.
192  1.91  0.  0.  0.
193  1.92  0.  0.  0.
194  1.93  0.  0.  0.
195  1.94  0.  0.  0.
196  1.95  0.  0.  0.
197  1.96  0.  0.  0.
198  1.97  0.  0.  0.
199  1.98  0.  0.  0.
200  1.99  0.  0.  0.
201  2.00  0.  0.  0.
202  2.01  0.  0.  0.
203  2.02  0.  0.  0.
204  2.03  0.  0.  0.
205  2.04  0.  0.  0.
206  2.05  0.  0.  0.
207  2.06  0.  0.  0.
208  2.07  0.  0.  0.
209  2.08  0.  0.  0.
210  2.09  0.  0.  0.
211  2.10  0.  0.  0.
212  2.11  0.  0.  0.
213  2.12  0.  0.  0.
214  2.13  0.  0.  0.
215  2.14  0.  0.  0.
216  2.15  0.  0.  0.
217  2.16  0.  0.  0.
218  2.17  0.  0.  0.
219  2.18  0.  0.  0.
220  2.19  0.  0.  0.
221  2.20  0.  0.  0.
222  2.21  0.  0.  0.
223  2.22  0.  0.  0.
224  2.23  0.  0.  0.
225  2.24  0.  0.  0.
226  2.25  0.  0.  0.
227  2.26  0.  0.  0.
228  2.27  0.  0.  0.
229  2.28  0.  0.  0.
230  2.29  0.  0.  0.
231  2.30  0.  0.  0.
232  2.31  0.  0.  0.
233  2.32  0.  0.  0.
234  2.33  0.  0.  0.
235  2.34  0.  0.  0.
236  2.35  0.  0.  0.
237  2.36  0.  0.  0.
238  2.37  0.  0.  0.
239  2.38  0.  0.  0.
240  2.39  0.  0.  0.
241  2.40  0.  0.  0.
242  2.41  0.  0.  0.
243  2.42  0.  0.  0.
244  2.43  0.  0.  0.
245  2.44  0.  0.  0.
246  2.45  0.  0.  0.
247  2.46  0.  0.  0.
248  2.47  0.  0.  0.
249  2.48  0.  0.  0.
250  2.49  0.  0.  0.
251  2.50  0.  0.  0.
252  2.51  0.  0.  0.
253  2.52  0.  0.  0.
254  2.53  0.  0.  0.
255  2.54  0.  0.  0.
256  2.55  0.  0.  0.
257  2.56  0.  0.  0.
258  2.57  0.  0.  0.
259  2.58  0.  0.  0.
260  2.59  0.  0.  0.
261  2.60  0.  0.  0.
262  2.61  0.  0.  0.
263  2.62  0.  0.  0.
264  2.63  0.  0.  0.
265  2.64  0.  0.  0.
266  2.65  0.  0.  0.
267  2.66  0.  0.  0.
268  2.67  0.  0.  0.
269  2.68  0.  0.  0.
270  2.69  0.  0.  0.
271  2.70  0.  0.  0.
272  2.71  0.  0.  0.
273  2.72  0.  0.  0.
274  2.73  0.  0.  0.
275  2.74  0.  0.  0.
276  2.75  0.  0.  0.
277  2.76  0.  0.  0.
278  2.77  0.  0.  0.
279  2.78  0.  0.  0.
280  2.79  0.  0.  0.
281  2.80  0.  0.  0.
282  2.81  0.  0.  0.
283  2.82  0.  0.  0.
284  2.83  0.  0.  0.
285  2.84  0.  0.  0.
286  2.85  0.  0.  0.
287  2.86  0.  0.  0.
288  2.87  0.  0.  0.
289  2.88  0.  0.  0.
290  2.89  0.  0.  0.
291  2.90  0.  0.  0.
292  2.91  0.  0.  0.
293  2.92  0.  0.  0.
294  2.93  0.  0.  0.
295  2.94  0.  0.  0.
296  2.95  0.  0.  0.
297  2.96  0.  0.  0.
298  2.97  0.  0.  0.
299  2.98  0.  0.  0.
300  2.99  0.  0.  0.
301  3.00  0.  0.  0.
302  3.01  0.  0.  0.
303  3.02  0.  0.  0.
304  3.03  0.  0.  0.
305  3.04  0.  0.  0.
306  3.05  0.  0.  0.
307  3.06  0.  0.  0.
308  3.07  0.  0.  0.
309  3.08  0.  0.  0.
310  3.09  0.  0.  0.
311  3.10  0.  0.  0.
312  3.11  0.  0.  0.
313  3.12  0.  0.  0.
314  3.13  0.  0.  0.
315  3.14  0.  0.  0.
316  3.15  0.  0.  0.
317  3.16  0.  0.  0.
318  3.17  0.  0.  0.
319  3.18  0.  0.  0.
320  3.19  0.  0.  0.
321  3.20  0.  0.  0.
322  3.21  0.  0.  0.
323  3.22  0.  0.  0.
324  3.23  0.  0.  0.
325  3.24  0.  0.  0.
326  3.25  0.  0.  0.
327  3.26  0.  0.  0.
328  3.27  0.  0.  0.
329  3.28  0.  0.  0.
330  3.29  0.  0.  0.
331  3.30  0.  0.  0.
332  3.31  0.  0.  0.
333  3.32  0.  0.  0.
334  3.33  0.  0.  0.
335  3.34  0.  0.  0.
336  3.35  0.  0.  0.
337  3.36  0.  0.  0.
338  3.37  0.  0.  0.
339  3.38  0.  0.  0.
340  3.39  0.  0.  0.
341  3.40  0.  0.  0.
342  3.41  0.  0.  0.
343  3.42  0.  0.  0.
344  3.43  0.  0.  0.
345  3.44  0.  0.  0.
346  3.45  0.  0.  0.
347  3.46  0.  0.  0.
348  3.47  0.  0.  0.
349  3.48  0.  0.  0.
350  3.49  0.  0.  0.
351  3.50  0.  0.  0.
352  3.51  0.  0.  0.
353  3.52  0.  0.  0.
354  3.53  0.  0.  0.
355  3.54  0.  0.  0.
356  3.55  0.  0.  0.
357  3.56  0.  0.  0.
358  3.57  0.  0.  0.
359  3.58  0.  0.  0.
360  3.59  0.  0.  0.
361  3.60  0.  0.  0.
362  3.61  0.  0.  0.
363  3.62  0.  0.  0.
364  3.63  0.  0.  0.
365  3.64  0.  0.  0.
366  3.65  0.  0.  0.
367  3.66  0.  0.  0.
368  3.67  0.  0.  0.
369  3.68  0.  0.  0.
370  3.69  0.  0.  0.
371  3.70  0.  0.  0.
372  3.71  0.  0.  0.
373  3.72  0.  0.  0.
374  3.73  0.  0.  0.
375  3.74  0.  0.  0.
376  3.75  0.  0.  0.
377  3.76  0.  0.  0.
378  3.77  0.  0.  0.
379  3.78  0.  0.  0.
380  3.79  0.  0.  0.
381  3.80  0.  0.  0.
382  3.81  0.  0.  0.
383  3.82  0.  0.  0.
384  3.83  0.  0.  0.
385  3.84  0.  0.  0.
386  3.85  0.  0.  0.
387  3.86  0.  0.  0.
388  3.87  0.  0.  0.
389  3.88  0.  0.  0.
390  3.89  0.  0.  0.
391  3.90  0.  0.  0.
392  3.91  0.  0.  0.
393  3.92  0.  0.  0.
394  3.93  0.  0.  0.
395  3.94  0.  0.  0.
396  3.95  0.  0.  0.
397  3.96  0.  0.  0.
398  3.97  0.  0.  0.
399  3.98  0.  0.  0.
400  3.99  0.  0.  0.
401  4.00  0.  0.  0.
402  4.01  0.  0.  0.
403  4.02  0.  0.  0.
404  4.03  0.  0.  0.
405  4.04  0.  0.  0.
406  4.05  0.  0.  0.
407  4.06  0.  0.  0.
408  4.07  0.  0.  0.
409  4.08  0.  0.  0.
410  4.09  0.  0.  0.
411  4.10  0.  0.  0.
412  4.11  0.  0.  0.
413  4.12  0.  0.  0.
414  4.13  0.  0.  0.
415  4.14  0.  0.  0.
416  4.15  0.  0.  0.
417  4.16  0.  0.  0.
418  4.17  0.  0.  0.
419  4.18  0.  0.  0.
420  4.19  0.  0.  0.
421  4.20  0.  0.  0.
422  4.21  0.  0.  0.
423  4.22  0.  0.  0.
424  4.23  0.  0.  0.
425  4.24  0.  0.  0.
426  4.25  0.  0.  0.
427  4.26  0.  0.  0.
428  4.27  0.  0.  0.
429  4.28  0.  0.  0.
430  4.29  0.  0.  0.
431  4.30  0.  0.  0.
432  4.31  0.  0.  0.
433  4.32  0.  0.  0.
434  4.33  0.  0.  0.
435  4.34  0.  0.  0.
436  4.35  0.  0.  0.
437  4.36  0.  0.  0.
438  4.37  0.  0.  0.
439  4.38  0.  0.  0.
440  4.39  0.  0.  0.
441  4.40  0.  0.  0.
442  4.41  0.  0.  0.
443  4.42  0.  0.  0.
444  4.43  0.  0.  0.
445  4.44  0.  0.  0.
446  4.45  0.  0.  0.
447  4.46  0.  0.  0.
448  4.47  0.  0.  0.
449  4.48  0.  0.  0.
450  4.49  0.  0.  0.
451  4.50  0.  0.  0.
452  4.51  0.  0.  0.
453  4.52  0.  0.  0.
454  4.53  0.  0.  0.
455  4.54  0.  0.  0.
456  4.55  0.  0.  0.
457  4.56  0.  0.  0.
458  4.57  0.  0.  0.
459  4.58  0.  0.  0.
460  4.59  0.  0.  0.
461  4.60  0.  0.  0.
462  4.61  0.  0.  0.
463  4.62  0.  0.  0.
464  4.63  0.  0.  0.
465  4.64  0.  0.  0.
466  4.65  0.  0.  0.
467  4.66  0.  0.  0.
468  4.67  0.  0.  0.
469  4.68  0.  0.  0.
470  4.69  0.  0.  0.
471  4.70  0.  0.  0.
472  4.71  0.  0.  0.
473  4.72  0.  0.  0.
474  4.73  0.  0.  0.
475  4.74  0.  0.  0.
476  4.75  0.  0.  0.
477  4.76  0.  0.  0.
478  4.77  0.  0.  0.
479  4.78  0.  0.  0.
480  4.79  0.  0.  0.
481  4.80  0.  0.  0.
482  4.81  0.  0.  0.
483  4.82  0.  0.  0.
484  4.83  0.  0.  0.
485  4.84  0.  0.  0.
486  4.85  0.  0.  0.
487  4.86  0.  0.  0.
488  4.87  0.  0.  0.
489  4.88  0.  0.  0.
490  4.89  0.  0.  0.
491  4.90  0.  0.  0.
492  4.91  0.  0.  0.
493  4.92  0.  0.  0.
494  4.93  0.  0.  0.
495  4.94  0.  0.  0.
496  4.95  0.  0.  0.
497  4.96  0.  0.  0.
498  4.97  0.  0.  0.
499  4.98  0.  0.  0.
500  4.99  0.  0.  0.
501  5.00  0.  0.  0.
502  5.01  0.  0.  0.
503  5.02  0.  0.  0.
504  5.03  0.  0.  0.
505  5.04  0.  0.  0.
506  5.05  0.  0.  0.
507  5.06  0.  0.  0.
508  5.07  0.  0.  0.
509  5.08  0.  0.  0.
510  5.09  0.  0.  0.
511  5.10  0.  0.  0.
512  5.11  0.  0.  0.
513  5.12  0.  0.  0.
514  5.13  0.  0.  0.
515  5.14  0.  0.  0.
516  5.15  0.  0.  0.
517  5.16  0.  0.  0.
518  5.17  0.  0.  0.
519  5.18  0.  0.  0.
520  5.19  0.  0.  0.
521  5.20  0.  0.  0.
522  5.21  0.  0.  0.
523  5.22  0.  0.  0.
524  5.23  0.  0.  0.
525  5.24  0.  0.  0.
526  5.25  0.  0.  0.
527  5.26  0.  0.  0.
528  5.27  0.  0.  0.
529  5.28  0.  0.  0.
530  5.29  0.  0.  0.
531  5.30  0.  0.  0.
532  5.31  0.  0.  0.
533  5.32  0.  0.  0.
534  5.33  0.  0.  0.
535  5.34  0.  0.  0.
536  5.35  0.  0.  0.
537  5.36  0.  0.  0.
538  5.37  0.  0.  0.
539  5.38  0.  0.  0.
540  5.39  0.  0.  0.
541  5.40  0.  0.  0.
542  5.41  0.  0.  0.
543  5.42  0.  0.  0.
544  5.43  0.  0.  0.
545  5.44  0.  0.  0.
546  5.45  0.  0.  0.
547  5.46  0.  0.  0.
548  5.47  0.  0.  0.
549  5.48  0.  0.  0.
550  5.49  0.  0.  0.
551  5.50  0.  0.  0.
552  5.51  0.  0.  0.
553  5.52  0.  0.  0.
554  5.53  0.  0.  0.
555  5.54  0.  0.  0.
556  5.55  0.  0.  0.
557  5.56  0.  0.  0.
558  5.57  0.  0.  0.
559  5.58  0.  0.  0.
560  5.59  0.  0.  0.
561  5.60  0.  0.  0.
562  5.61  0.  0.  0.
563  5.62  0.  0.  0.
564  5.63  0.  0.  0.
565  5.64  0.  0.  0.
566  5.65  0.  0.  0.
567  5.66  0.  0.  0.
568  5.67  0.  0.  0.
569  5.68  0.  0.  0.
570  5.69  0.  0.  0.
571  5.70  0.  0.  0.
572  5.71  0.  0.  0.
573  5.72  0.  0.  0.
574  5.73  0.  0.  0.
575  5.74  0.  0.  0.
576  5.75  0.  0.  0.
577  5.76  0.  0.  0.
578  5.77  0.  0.  0.
579  5.78  0.  0.  0.
580  5.79  0.  0.  0.
581  5.80  0.  0.  0.
582  5.81  0.  0.  0.
583  5.82  0.  0.  0.
584  5.83  0.  0.  0.
585  5.84  0.  0.  0.
586  5.85  0.  0.  0.
587  5.86  0.  0.  0.
588  5.87  0.  0.  0.
589  5.88  0.  0.  0.
590  5.89  0.  0.  0.
591  5.90  0.  0.  0.
592  5.91  0.  0.  0.
593  5.92  0.  0.  0.
594  5.93  0.  0.  0.
595  5.94  0.  0.  0.
596  5.95  0.  0.  0.
597  5.96  0.  0.  0.
598  5.97  0.  0.  0.
599  5.98  0.  0.  0.
600  5.99  0.  0.  0.
1                        -6.8092739548944E+00  2.2798980628238E+00
1  0.0000000000000E+00  1.4060696940099E-08  2.0578654574138E-07
2  1.0000000000000E-02  2.2987650419256E-03 -3.9283898574026E-04
3  2.0000000000000E-02  9.1762884370825E-03 -1.6432999177691E-03
4  3.0000000000000E-02  2.0576579482038E-02 -3.9636223648124E-03
5  4.0000000000000E-02  3.6407392238460E-02 -7.6957116976888E-03
6  5.0000000000000E-02  5.6541799692095E-02 -1.3293907858128E-02
7  6.0000000000000E-02  8.0820331451290E-02 -2.1301860148396E-02
8  7.0000000000000E-02  1.0905361175196E-01 -3.2324458955026E-02
9  8.0000000000000E-02  1.4102542047521E-01 -4.6995981106519E-02
10  9.0000000000000E-02  1.7649608861497E-01 -6.5945765504912E-02
11  1.0000000000000E-01  2.1520613155095E-01 -8.9762843383398E-02
12  1.1000000000000E-01  2.5688001886045E-01 -1.1896099868991E-01
13  1.2000000000000E-01  3.0122997838188E-01 -1.5394572656352E-01
14  1.3000000000000E-01  3.4795973482895E-01 -1.9498449184309E-01
15  1.4000000000000E-01  3.9676808931361E-01 -2.4218156750631E-01
16  1.5000000000000E-01  4.4735225540668E-01 -2.9545855956951E-01
17  1.6000000000000E-01  4.9941087946068E-01 -3.5454150698603E-01
18  1.7000000000000E-01  5.5264668735249E-01 -4.1895519093219E-01
19  1.8000000000000E-01  6.0676871599517E-01 -4.8802500746143E-01
20  1.9000000000000E-01  6.6149410528003E-01 -5.6088646178587E-01
21  2.0000000000000E-01  7.1654944386104E-01 -6.3650204297906E-01
22  2.1000000000000E-01  7.7167167969221E-01 -7.1368494642623E-01
23  2.2000000000000E-01  8.2660862279704E-01 -7.9112883933548E-01
24  2.3000000000000E-01  8.8111908274893E-01 -8.6744262279635E-01
25  2.4000000000000E-01  9.3497269620110E-01 -9.4118894180645E-01
26  2.5000000000000E-01  9.8794951003756E-01 -1.0109250404457E+00
27  2.6000000000000E-01  1.0398393929441E+00 -1.0752444591768E+00
28  2.7000000000000E-01  1.0904413521600E+00 -1.1328180292294E+00
29  2.8000000000000E-01  1.1395628327386E+00 -1.1824326370729E+00
30  2.9000000000000E-01  1.1870190738223E+00 -1.2230263096597E+00
31  3.0000000000000E-01  1.2326325903692E+00 -1.2537183056743E+00
32  3.1000000000000E-01  1.2762328397150E+00 -1.2738330844828E+00
33  3.2000000000000E-01  1.3176561207179E+00 -1.2829172558340E+00
34  3.3000000000000E-01  1.3567457394885E+00 -1.2807488808548E+00
35  3.4000000000000E-01  1.3933524604426E+00 -1.2673387882820E+00
36  3.5000000000000E-01  1.4273352452609E+00 -1.2429238779343E+00
37  3.6000000000000E-01  1.4585622659709E+00 -1.2079526942439E+00
38  3.7000000000000E-01  1.4869121624730E+00 -1.1630638541976E+00
39  3.8000000000000E-01  1.5122755000733E+00 -1.1090581944929E+00
40  3.9000000000000E-01  1.5345563696018E+00 -1.0468657510756E+00
41  4.0000000000000E-01  1.5536740620333E+00 -9.7750889061687E-01
42  4.1000000000000E-01  1.5695647416652E+00 -9.0206306959076E-01
43  4.2000000000000E-01  1.5821830372128E+00 -8.2161679597181E-01
44  4.3000000000000E-01  1.5915034688868E+00 -7.3723240686965E-01
45  4.4000000000000E-01  1.5975216317378E+00 -6.4990925062562E-01
46  4.5000000000000E-01  1.6002550612566E+00 -5.6055077439867E-01
47  4.6000000000000E-01  1.5997437162404E+00 -4.6993687083939E-01
48  4.7000000000000E-01  1.5960500259704E+00 -3.7870263517941E-01
49  4.8000000000000E-01  1.5892584633793E+00 -2.8732443418036E-01
50  4.9000000000000E-01  1.5794746225837E+00 -1.9611390000306E-01
51  5.0000000000000E-01  1.5668237972980E+00 -1.0522014584832E-01
52  5.1000000000000E-01  1.5514490755503E+00 -1.4640168030424E-02
53  5.2000000000000E-01  1.5335089850637E+00  7.5762936436454E-02
54  5.3000000000000E-01  1.5131747419026E+00  1.6623463376742E-01
55  5.4000000000000E-01  1.4906271717951E+00  2.5709749984432E-01
56  5.5000000000000E-01  1.4660533882446E+00  3.4871491997721E-01
57  5.6000000000000E-01  1.4396433235162E+00  4.4145143762008E-01
58  5.7000000000000E-01  1.4115862173051E+00  5.3563141813649E-01
59  5.8000000000000E-01  1.3820671729584E+00  6.3149780241107E-01
60  5.9000000000000E-01  1.3512638922338E+00  7.2917276680782E-01
61  6.0000000000000E-01  1.3193436966167E+00  8.2862207789233E-01
62  6.1000000000000E-01  1.2864609361752E+00  9.2962483222426E-01
63  6.2000000000000E-01  1.2527548759829E+00  1.0317501057536E+00
64  6.3000000000000E-01  1.2183481355931E+00  1.1343418088491E+00
65  6.4000000000000E-01  1.1833457393451E+00  1.2365127590762E+00
66  6.5000000000000E-01  1.1478348150178E+00  1.3371486540438E+00
67  6.6000000000000E-01  1.1118849561798E+00  1.4349222623474E+00
68  6.7000000000000E-01  1.0755492403077E+00  1.5283177646961E+00
69  6.8000000000000E-01  1.0388658711576E+00  1.6156647836337E+00
70  6.9000000000000E-01  1.0018603908526E+00  1.6951812533211E+00
71  7.0000000000000E-01  9.6454838552860E-01  1.7650239150686E+00
72  7.1000000000000E-01  9.2693858898386E-01  1.8233448937603E+00
73  7.2000000000000E-01  8.8903627236957E-01  1.8683525279075E+00
74  7.3000000000000E-01  8.5084679518639E-01  1.8983744033559E+00
75  7.4000000000000E-01  8.1237918428004E-01  1.9119203871658E+00
76  7.5000000000000E-01  7.7364960355327E-01  1.9077433811258E+00
77  7.6000000000000E-01  7.3468457798818E-01  1.8848955183673E+00
78  7.7000000000000E-01  6.9552384138069E-01  1.8427776133528E+00
79  7.8000000000000E-01  6.5622268783558E-01  1.7811798439525E+00
80  7.9000000000000E-01  6.1685372228320E-01  1.7003118901962E+00
81  8.0000000000000E-01  5.7750792461798E-01  1.6008210705416E+00
82  8.1000000000000E-01  5.3829496492560E-01  1.4837973933896E+00
83  8.2000000000000E-01  4.9934273291953E-01  1.3507648669322E+00
84  8.3000000000000E-01  4.6079607229596E-01  1.2036588701269E+00
85  8.4000000000000E-01  4.2281473929174E-01  1.0447898659115E+00
86  8.5000000000000E-01  3.8557063329448E-01  8.7679421804267E-01
87  8.6000000000000E-01  3.4924437488384E-01  7.0257333801080E-01
88  8.7000000000000E-01  3.1402133217007E-01  5.2522282140966E-01
89  8.8000000000000E-01  2.8008721878157E-01  3.4795361775267E-01
90  8.9000000000000E-01  2.4762340546605E-01  1.7400759925908E-01
91  9.0000000000000E-01  2.1680210125596E-01  6.5701397458898E-03
92  9.1000000000000E-01  1.8778156890398E-01 -1.5131752592845E-01
93  9.2000000000000E-01  1.6070154238769E-01 -2.9684332592017E-01
94  9.3000000000000E-01  1.3567901147356E-01 -4.2750395565091E-01
95  9.4000000000000E-01  1.1280452958783E-01 -5.4117639061885E-01
96  9.5000000000000E-01  9.2139186741021E-02 -6.3617886422034E-01
97  9.6000000000000E-01  7.3712369377684E-02 -7.1131918547832E-01
98  9.7000000000000E-01  5.7520404368107E-02 -7.6592867073809E-01
99  9.8000000000000E-01  4.3526155672589E-02 -7.9988043109916E-01
100  9.9000000000000E-01  3.1659610436395E-02 -8.1359127806427E-01
101  1.0000000000000E+00  2.1819457448785E-02 -8.0800706658094E-01
102  1.0100000000000E+00  1.3875626201496E-02 -7.8457186782531E-01
103  1.0200000000000E+00  7.6727203476757E-03 -7.4518193489053E-01
104  1.0300000000000E+00  3.0342464690709E-03 -6.9212597177569E-01
105  1.0400000000000E+00 -2.3249114335562E-04 -6.2801372057144E-01
106  1.0500000000000E+00 -2.3309854409502E-03 -5.5569532580292E-01
107  1.0600000000000E+00 -3.4697886864270E-03 -4.7817430079017E-01
108  1.0700000000000E+00 -3.8566350859209E-03 -3.9851719567688E-01
109  1.0800000000000E+00 -3.6926159100118E-03 -3.1976304020584E-01
110  1.0900000000000E+00 -3.1667156656932E-03 -2.4483765896334E-01
111  1.1000000000000E+00 -2.4456358397845E-03 -1.7637963265582E-01
112  1.1100000000000E+00 -1.6664250577030E-03 -1.1659859425628E-01
113  1.1200000000000E+00 -9.6492863505334E-04 -6.7812275534368E-02
114  1.1300000000000E+00 -4.3358898832023E-04 -3.1686957651120E-02
115  1.1400000000000E+00 -1.1485611680268E-04 -9.0842942217496E-03
116  1.1500000000000E+00 -3.6055040468800E-06 -3.2918200628015E-04
117  1.1600000000000E+00 -3.4738311219292E-07 -3.0813568910436E-05
118  1.1700000000000E+00  8.6164695313363E-08  7.2304957957510E-06
119  1.18  0.  0.
120  1.19  0.  0.
121  1.20  0.  0.
122  1.21  0.  0.
123  1.22  0.  0.
124  1.23  0.  0.
125  1.24  0.  0.
126  1.25  0.  0.
127  1.26  0.  0.
128  1.27  0.  0.
129  1.28  0.  0.
130  1.29  0.  0.
131  1.30  0.  0.
132  1.31  0.  0.
133  1.32  0.  0.
134  1.33  0.  0.
135  1.34  0.  0.
136  1.35  0.  0.
137  1.36  0.  0.
138  1.37  0.  0.
139  1.38  0.  0.
140  1.39  0.  0.
141  1.40  0.  0.
142  1.41  0.  0.
143  1.42  0.  0.
144  1.43  0.  0.
145  1.44  0.  0.
146  1.45  0.  0.
147  1.46  0.  0.
148  1.47  0.  0.
149  1.48  0.  0.
150  1.49  0.  0.
151  1.50  0.  0.
152  1.51  0.  0.
153  1.52  0.  0.
154  1.53  0.  0.
155  1.54  0.  0.
156  1.55  0.  0.
157  1.56  0.  0.
158  1.57  0.  0.
159  1.58  0.  0.
160  1.59  0.  0.
161  1.60  0.  0.
162  1.61  0.  0.
163  1.62  0.  0.
164  1.63  0.  0.
165  1.64  0.  0.
166  1.65  0.  0.
167  1.66  0.  0.
168  1.67  0.  0.
169  1.68  0.  0.
170  1.69  0.  0.
171  1.70  0.  0.
172  1.71  0.  0.
173  1.72  0.  0.
174  1.73  0.  0.
175  1.74  0.  0.
176  1.75  0.  0.
177  1.76  0.  0.
178  1.77  0.  0.
179  1.78  0.  0.
180  1.79  0.  0.
181  1.80  0.  0.
182  1.81  0.  0.
183  1.82  0.  0.