Lr    ONCVPSP-4.0.1  r_core=   1.10451   1.15174   1.15174   1.20099
103.0000     43.0000      230612    zatom,zion,pspd
8      11   3     4   600     0    pspcod,pspxc,lmax,lloc,mmax,r2well
5.99000000  4.12600000  0.00000000    rchrg fchrg qchrg
3     3     2     2    nproj
3     1           extension_switch
4     4     3    nprojso
0                         1.2589748324017E+01 -7.5603144638672E+00 -1.8832693622259E+00
1  0.0000000000000E+00  9.8072936438598E-08  1.7281354736109E-08 -1.2305657250966E-06
2  1.0000000000000E-02  1.5241601444079E-01  4.0492586338548E-02  2.1160370438177E-01
3  2.0000000000000E-02  3.0404589761637E-01  8.1099264999349E-02  4.1690107505958E-01
4  3.0000000000000E-02  4.5409674747269E-01  1.2193014945632E-01  6.0980818414097E-01
5  4.0000000000000E-02  6.0176271858115E-01  1.6308752383032E-01  7.8467736027650E-01
6  5.0000000000000E-02  7.4622001865152E-01  2.0466224428726E-01  9.3649427086736E-01
7  6.0000000000000E-02  8.8662359156847E-01  2.4673050652005E-01  1.0610506916348E+00
8  7.0000000000000E-02  1.0221059269823E+00  2.8935107989544E-01  1.1550863891492E+00
9  8.0000000000000E-02  1.1517783384120E+00  3.3256309156545E-01  1.2163947724827E+00
10  9.0000000000000E-02  1.2747349371806E+00  3.7638442356532E-01  1.2438884114423E+00
11  1.0000000000000E-01  1.3900594031079E+00  4.2081076344606E-01  1.2376221122468E+00
12  1.1000000000000E-01  1.4968345200518E+00  4.6581532520772E-01  1.1987729223345E+00
13  1.2000000000000E-01  1.5941543106964E+00  5.1134923314091E-01  1.1295781361396E+00
14  1.3000000000000E-01  1.6811384760820E+00  5.5734253759431E-01  1.0332340244845E+00
15  1.4000000000000E-01  1.7569487267057E+00  6.0370580957947E-01  9.1375954527185E-01
16  1.5000000000000E-01  1.8208064886412E+00  6.5033224135145E-01  7.7583065095695E-01
17  1.6000000000000E-01  1.8720113844618E+00  6.9710016341638E-01  6.2459193483129E-01
18  1.7000000000000E-01  1.9099598284315E+00  7.4387587543574E-01  4.6545320912204E-01
19  1.8000000000000E-01  1.9341630411429E+00  7.9051667969257E-01  3.0387915036306E-01
20  1.9000000000000E-01  1.9442637821606E+00  8.3687400145188E-01  1.4518036123777E-01
21  2.0000000000000E-01  1.9400511207810E+00  8.8279648080497E-01 -5.6859236233641E-03
22  2.1000000000000E-01  1.9214726141213E+00  9.2813292536257E-01 -1.4429771064734E-01
23  2.2000000000000E-01  1.8886433366556E+00  9.7273502220700E-01 -2.6692568042378E-01
24  2.3000000000000E-01  1.8418513032493E+00  1.0164597204085E+00 -3.7066019645218E-01
25  2.4000000000000E-01  1.7815589449948E+00  1.0591712115868E+00 -4.5350317147173E-01
26  2.5000000000000E-01  1.7084004292377E+00  1.1007424547586E+00 -5.1442151920771E-01
27  2.6000000000000E-01  1.6231747570473E+00  1.1410562122704E+00 -5.5336048526280E-01
28  2.7000000000000E-01  1.5268347175426E+00  1.1800055851063E+00 -5.7121677285338E-01
29  2.8000000000000E-01  1.4204719233390E+00  1.2174940574159E+00 -5.6977299151841E-01
30  2.9000000000000E-01  1.3052982893305E+00  1.2534350808397E+00 -5.5159649507794E-01
31  3.0000000000000E-01  1.1826244428053E+00  1.2877512482977E+00 -5.1990707791602E-01
32  3.1000000000000E-01  1.0538356616745E+00  1.3203731235907E+00 -4.7841921091439E-01
33  3.2000000000000E-01  9.2036602525900E-01  1.3512378067989E+00 -4.3116547324050E-01
34  3.3000000000000E-01  7.8367152532186E-01  1.3802873255337E+00 -3.8230853670600E-01
35  3.4000000000000E-01  6.4520292149529E-01  1.4074669482345E+00 -3.3594946012585E-01
36  3.5000000000000E-01  5.0637913364208E-01  1.4327235177073E+00 -2.9594013875390E-01
37  3.6000000000000E-01  3.6856194377568E-01  1.4560039009381E+00 -2.6570752801197E-01
38  3.7000000000000E-01  2.3303273280604E-01  1.4772536450199E+00 -2.4809673334789E-01
39  3.8000000000000E-01  1.0097190448473E-01  1.4964159191001E+00 -2.4523925323654E-01
40  3.9000000000000E-01 -2.6558446655937E-02  1.5134308090378E+00 -2.5845161477805E-01
41  4.0000000000000E-01 -1.4862818113477E-01  1.5282350155112E+00 -2.8816839523120E-01
42  4.1000000000000E-01 -2.6444876105620E-01  1.5407619883291E+00 -3.3391222950104E-01
43  4.2000000000000E-01 -3.7337872315178E-01  1.5509425104017E+00 -3.9430191987879E-01
44  4.3000000000000E-01 -4.7492494751316E-01  1.5587057250191E+00 -4.6709824964626E-01
45  4.4000000000000E-01 -5.6873983375902E-01  1.5639805805649E+00 -5.4928561663619E-01
46  4.5000000000000E-01 -6.5461463289175E-01  1.5666976483358E+00 -6.3718620447994E-01
47  4.6000000000000E-01 -7.3246930862529E-01  1.5667912524752E+00 -7.2660215199193E-01
48  4.7000000000000E-01 -8.0233941204482E-01  1.5642018368071E+00 -8.1298011240965E-01
49  4.8000000000000E-01 -8.6436054425914E-01  1.5588784821117E+00 -8.9159175357504E-01
50  4.9000000000000E-01 -9.1875105018056E-01  1.5507814795479E+00 -9.5772316746070E-01
51  5.0000000000000E-01 -9.6579363053511E-01  1.5398848617647E+00 -1.0068658521544E+00
52  5.1000000000000E-01 -1.0058165774380E+00  1.5261787928967E+00 -1.0349019097432E+00
53  5.2000000000000E-01 -1.0391753311138E+00  1.5096717220882E+00 -1.0382763664617E+00
54  5.3000000000000E-01 -1.0662350223107E+00  1.4903922122684E+00 -1.0141500530558E+00
55  5.4000000000000E-01 -1.0873546082991E+00  1.4683903663092E+00 -9.6052725934328E-01
56  5.5000000000000E-01 -1.1028731325489E+00  1.4437387860085E+00 -8.7635336425679E-01
57  5.6000000000000E-01 -1.1130985424764E+00  1.4165330150283E+00 -7.6157880036450E-01
58  5.7000000000000E-01 -1.1182993898841E+00  1.3868914343643E+00 -6.1718699334999E-01
59  5.8000000000000E-01 -1.1186996191742E+00  1.3549545974622E+00 -4.4518527158222E-01
60  5.9000000000000E-01 -1.1144765236723E+00  1.3208840110301E+00 -2.4855911629942E-01
61  6.0000000000000E-01 -1.1057618251396E+00  1.2848603862218E+00 -3.1191466807065E-02
62  6.1000000000000E-01 -1.0926457103983E+00  1.2470814025031E+00  2.0224994256382E-01
63  6.2000000000000E-01 -1.0751835463190E+00  1.2077590425422E+00  4.4645310207539E-01
64  6.3000000000000E-01 -1.0534048942276E+00  1.1671165703226E+00  6.9562502378316E-01
65  6.4000000000000E-01 -1.0273243605236E+00  1.1253852359017E+00  9.4367197047625E-01
66  6.5000000000000E-01 -9.9695375479243E-01  1.0828007984791E+00  1.1843902288507E+00
67  6.6000000000000E-01 -9.6231498201097E-01  1.0395999644457E+00  1.4116607385322E+00
68  6.7000000000000E-01 -9.2345307287587E-01  9.9601683875657E-01  1.6196408347304E+00
69  6.8000000000000E-01 -8.8044875629543E-01  9.5227948630335E-01  1.8029465523800E+00
70  6.9000000000000E-01 -8.3343000030703E-01  9.0860669509753E-01  1.9568193614153E+00
71  7.0000000000000E-01 -7.8258199097736E-01  8.6520502524975E-01  2.0772718359394E+00
72  7.1000000000000E-01 -7.2815508131483E-01  8.2226621729032E-01  2.1612075766022E+00
73  7.2000000000000E-01 -6.7047032136031E-01  7.7996502074801E-01  2.2065116718343E+00
74  7.3000000000000E-01 -6.0992227333990E-01  7.3845748958290E-01  2.2121090611661E+00
75  7.4000000000000E-01 -5.4697891857687E-01  6.9787977559467E-01  2.1779893113474E+00
76  7.5000000000000E-01 -4.8217857199369E-01  6.5834743486271E-01  2.1051974906378E+00
77  7.6000000000000E-01 -4.1612383155284E-01  6.1995524618771E-01  1.9957919858705E+00
78  7.7000000000000E-01 -3.4947269995532E-01  5.8277752494427E-01  1.8527712100869E+00
79  7.8000000000000E-01 -2.8292712053618E-01  5.4686890123047E-01  1.6799721583914E+00
80  7.9000000000000E-01 -2.1721926499998E-01  5.1226551817394E-01  1.4819446531952E+00
81  8.0000000000000E-01 -1.5309599425390E-01  4.7898659511089E-01  1.2638058500747E+00
82  8.1000000000000E-01 -9.1301982400471E-02  4.4703629140370E-01  1.0310801311046E+00
83  8.2000000000000E-01 -3.2562045775443E-02  4.1640580012719E-01  7.8952987970453E-01
84  8.3000000000000E-01  2.2436747807011E-02  3.8707559686027E-01  5.4498280280111E-01
85  8.4000000000000E-01  7.3062600639260E-02  3.5901776740896E-01  3.0316144254660E-01
86  8.5000000000000E-01  1.1875555452902E-01  3.3219833940535E-01  6.9520307696233E-02
87  8.6000000000000E-01  1.5904255037312E-01  3.0657954624218E-01 -1.5090433299253E-01
88  8.7000000000000E-01  1.9355046400789E-01  2.8212195750632E-01 -3.5362749803984E-01
89  8.8000000000000E-01  2.2201666510508E-01  2.5878641769668E-01 -5.3482756346345E-01
90  8.9000000000000E-01  2.4429672139941E-01  2.3653574423202E-01 -6.9143432605870E-01
91  9.0000000000000E-01  2.6036895846813E-01  2.1533614621813E-01 -8.2119089749777E-01
92  9.1000000000000E-01  2.7033568284604E-01  1.9515833677128E-01 -9.2268818456074E-01
93  9.2000000000000E-01  2.7442098046655E-01  1.7597832350534E-01 -9.9537164865755E-01
94  9.3000000000000E-01  2.7296511009812E-01  1.5777787370111E-01 -1.0395209667544E+00
95  9.4000000000000E-01  2.6641561942899E-01  1.4054466233019E-01 -1.0562041089636E+00
96  9.5000000000000E-01  2.5531541660214E-01  1.2427212217029E-01 -1.0472081808245E+00
97  9.6000000000000E-01  2.4028812934223E-01  1.0895902543080E-01 -1.0149501295336E+00
98  9.7000000000000E-01  2.2202117454899E-01  9.4608835354605E-02 -9.6237106528781E-01
99  9.8000000000000E-01  2.0124704094999E-01  8.1228873979501E-02 -8.9281848830546E-01
100  9.9000000000000E-01  1.7872335391817E-01  6.8829358472856E-02 -8.0992112894655E-01
101  1.0000000000000E+00  1.5521234319205E-01  5.7422363102141E-02 -7.1746139742917E-01
102  1.0100000000000E+00  1.3146036967725E-01  4.7020766920589E-02 -6.1925059915015E-01
103  1.0200000000000E+00  1.0817818594598E-01  3.7637248629820E-02 -5.1901210333169E-01
104  1.0300000000000E+00  8.6022603314895E-02  2.9283391137834E-02 -4.2027745341333E-01
105  1.0400000000000E+00  6.5580246939034E-02  2.1968945131548E-02 -3.2630119335713E-01
106  1.0500000000000E+00  4.7354163172089E-02  1.5701250053022E-02 -2.4000531113844E-01
107  1.0600000000000E+00  3.1763906420793E-02  1.0479879047100E-02 -1.6431695382515E-01
108  1.0700000000000E+00  1.9118502019802E-02  6.3057207723403E-03 -1.0130961261600E-01
109  1.0800000000000E+00  9.6128981050317E-03  3.1835643157213E-03 -5.2374356672707E-02
110  1.0900000000000E+00  3.3452764929434E-03  1.1171246324575E-03 -1.8814706852385E-02
111  1.1000000000000E+00  3.4123606265252E-04  1.1540147162488E-04 -1.9906633151843E-03
112  1.1100000000000E+00 -1.2177729757307E-05 -4.1507430260264E-06  7.2810465158584E-05
113  1.1200000000000E+00 -1.6274135941121E-06 -5.4813830569806E-07  9.4175858345159E-06
114  1.13  0.  0.  0.
115  1.14  0.  0.  0.
116  1.15  0.  0.  0.
117  1.16  0.  0.  0.
118  1.17  0.  0.  0.
119  1.18  0.  0.  0.
120  1.19  0.  0.  0.
121  1.20  0.  0.  0.
122  1.21  0.  0.  0.
123  1.22  0.  0.  0.
124  1.23  0.  0.  0.
125  1.24  0.  0.  0.
126  1.25  0.  0.  0.
127  1.26  0.  0.  0.
128  1.27  0.  0.  0.
129  1.28  0.  0.  0.
130  1.29  0.  0.  0.
131  1.30  0.  0.  0.
132  1.31  0.  0.  0.
133  1.32  0.  0.  0.
134  1.33  0.  0.  0.
135  1.34  0.  0.  0.
136  1.35  0.  0.  0.
137  1.36  0.  0.  0.
138  1.37  0.  0.  0.
139  1.38  0.  0.  0.
140  1.39  0.  0.  0.
141  1.40  0.  0.  0.
142  1.41  0.  0.  0.
143  1.42  0.  0.  0.
144  1.43  0.  0.  0.
145  1.44  0.  0.  0.
146  1.45  0.  0.  0.
147  1.46  0.  0.  0.
148  1.47  0.  0.  0.
149  1.48  0.  0.  0.
150  1.49  0.  0.  0.
151  1.50  0.  0.  0.
152  1.51  0.  0.  0.
153  1.52  0.  0.  0.
154  1.53  0.  0.  0.
155  1.54  0.  0.  0.
156  1.55  0.  0.  0.
157  1.56  0.  0.  0.
158  1.57  0.  0.  0.
159  1.58  0.  0.  0.
160  1.59  0.  0.  0.
161  1.60  0.  0.  0.
162  1.61  0.  0.  0.
163  1.62  0.  0.  0.
164  1.63  0.  0.  0.
165  1.64  0.  0.  0.
166  1.65  0.  0.  0.
167  1.66  0.  0.  0.
168  1.67  0.  0.  0.
169  1.68  0.  0.  0.
170  1.69  0.  0.  0.
171  1.70  0.  0.  0.
172  1.71  0.  0.  0.
173  1.72  0.  0.  0.
174  1.73  0.  0.  0.
175  1.74  0.  0.  0.
176  1.75  0.  0.  0.
177  1.76  0.  0.  0.
178  1.77  0.  0.  0.
179  1.78  0.  0.  0.
180  1.79  0.  0.  0.
181  1.80  0.  0.  0.
182  1.81  0.  0.  0.
183  1.82  0.  0.  0.
184  1.83  0.  0.  0.
185  1.84  0.  0.  0.
186  1.85  0.  0.  0.
187  1.86  0.  0.  0.
188  1.87  0.  0.  0.
189  1.88  0.  0.  0.
190  1.89  0.  0.  0.
191  1.90  0.  0.  0.
192  1.91  0.  0.  0.
193  1.92  0.  0.  0.
194  1.93  0.  0.  0.
195  1.94  0.  0.  0.
196  1.95  0.  0.  0.
197  1.96  0.  0.  0.
198  1.97  0.  0.  0.
199  1.98  0.  0.  0.
200  1.99  0.  0.  0.
201  2.00  0.  0.  0.
202  2.01  0.  0.  0.
203  2.02  0.  0.  0.
204  2.03  0.  0.  0.
205  2.04  0.  0.  0.
206  2.05  0.  0.  0.
207  2.06  0.  0.  0.
208  2.07  0.  0.  0.
209  2.08  0.  0.  0.
210  2.09  0.  0.  0.
211  2.10  0.  0.  0.
212  2.11  0.  0.  0.
213  2.12  0.  0.  0.
214  2.13  0.  0.  0.
215  2.14  0.  0.  0.
216  2.15  0.  0.  0.
217  2.16  0.  0.  0.
218  2.17  0.  0.  0.
219  2.18  0.  0.  0.
220  2.19  0.  0.  0.
221  2.20  0.  0.  0.
222  2.21  0.  0.  0.
223  2.22  0.  0.  0.
224  2.23  0.  0.  0.
225  2.24  0.  0.  0.
226  2.25  0.  0.  0.
227  2.26  0.  0.  0.
228  2.27  0.  0.  0.
229  2.28  0.  0.  0.
230  2.29  0.  0.  0.
231  2.30  0.  0.  0.
232  2.31  0.  0.  0.
233  2.32  0.  0.  0.
234  2.33  0.  0.  0.
235  2.34  0.  0.  0.
236  2.35  0.  0.  0.
237  2.36  0.  0.  0.
238  2.37  0.  0.  0.
239  2.38  0.  0.  0.
240  2.39  0.  0.  0.
241  2.40  0.  0.  0.
242  2.41  0.  0.  0.
243  2.42  0.  0.  0.
244  2.43  0.  0.  0.
245  2.44  0.  0.  0.
246  2.45  0.  0.  0.
247  2.46  0.  0.  0.
248  2.47  0.  0.  0.
249  2.48  0.  0.  0.
250  2.49  0.  0.  0.
251  2.50  0.  0.  0.
252  2.51  0.  0.  0.
253  2.52  0.  0.  0.
254  2.53  0.  0.  0.
255  2.54  0.  0.  0.
256  2.55  0.  0.  0.
257  2.56  0.  0.  0.
258  2.57  0.  0.  0.
259  2.58  0.  0.  0.
260  2.59  0.  0.  0.
261  2.60  0.  0.  0.
262  2.61  0.  0.  0.
263  2.62  0.  0.  0.
264  2.63  0.  0.  0.
265  2.64  0.  0.  0.
266  2.65  0.  0.  0.
267  2.66  0.  0.  0.
268  2.67  0.  0.  0.
269  2.68  0.  0.  0.
270  2.69  0.  0.  0.
271  2.70  0.  0.  0.
272  2.71  0.  0.  0.
273  2.72  0.  0.  0.
274  2.73  0.  0.  0.
275  2.74  0.  0.  0.
276  2.75  0.  0.  0.
277  2.76  0.  0.  0.
278  2.77  0.  0.  0.
279  2.78  0.  0.  0.
280  2.79  0.  0.  0.
281  2.80  0.  0.  0.
282  2.81  0.  0.  0.
283  2.82  0.  0.  0.
284  2.83  0.  0.  0.
285  2.84  0.  0.  0.
286  2.85  0.  0.  0.
287  2.86  0.  0.  0.
288  2.87  0.  0.  0.
289  2.88  0.  0.  0.
290  2.89  0.  0.  0.
291  2.90  0.  0.  0.
292  2.91  0.  0.  0.
293  2.92  0.  0.  0.
294  2.93  0.  0.  0.
295  2.94  0.  0.  0.
296  2.95  0.  0.  0.
297  2.96  0.  0.  0.
298  2.97  0.  0.  0.
299  2.98  0.  0.  0.
300  2.99  0.  0.  0.
301  3.00  0.  0.  0.
302  3.01  0.  0.  0.
303  3.02  0.  0.  0.
304  3.03  0.  0.  0.
305  3.04  0.  0.  0.
306  3.05  0.  0.  0.
307  3.06  0.  0.  0.
308  3.07  0.  0.  0.
309  3.08  0.  0.  0.
310  3.09  0.  0.  0.
311  3.10  0.  0.  0.
312  3.11  0.  0.  0.
313  3.12  0.  0.  0.
314  3.13  0.  0.  0.
315  3.14  0.  0.  0.
316  3.15  0.  0.  0.
317  3.16  0.  0.  0.
318  3.17  0.  0.  0.
319  3.18  0.  0.  0.
320  3.19  0.  0.  0.
321  3.20  0.  0.  0.
322  3.21  0.  0.  0.
323  3.22  0.  0.  0.
324  3.23  0.  0.  0.
325  3.24  0.  0.  0.
326  3.25  0.  0.  0.
327  3.26  0.  0.  0.
328  3.27  0.  0.  0.
329  3.28  0.  0.  0.
330  3.29  0.  0.  0.
331  3.30  0.  0.  0.
332  3.31  0.  0.  0.
333  3.32  0.  0.  0.
334  3.33  0.  0.  0.
335  3.34  0.  0.  0.
336  3.35  0.  0.  0.
337  3.36  0.  0.  0.
338  3.37  0.  0.  0.
339  3.38  0.  0.  0.
340  3.39  0.  0.  0.
341  3.40  0.  0.  0.
342  3.41  0.  0.  0.
343  3.42  0.  0.  0.
344  3.43  0.  0.  0.
345  3.44  0.  0.  0.
346  3.45  0.  0.  0.
347  3.46  0.  0.  0.
348  3.47  0.  0.  0.
349  3.48  0.  0.  0.
350  3.49  0.  0.  0.
351  3.50  0.  0.  0.
352  3.51  0.  0.  0.
353  3.52  0.  0.  0.
354  3.53  0.  0.  0.
355  3.54  0.  0.  0.
356  3.55  0.  0.  0.
357  3.56  0.  0.  0.
358  3.57  0.  0.  0.
359  3.58  0.  0.  0.
360  3.59  0.  0.  0.
361  3.60  0.  0.  0.
362  3.61  0.  0.  0.
363  3.62  0.  0.  0.
364  3.63  0.  0.  0.
365  3.64  0.  0.  0.
366  3.65  0.  0.  0.
367  3.66  0.  0.  0.
368  3.67  0.  0.  0.
369  3.68  0.  0.  0.
370  3.69  0.  0.  0.
371  3.70  0.  0.  0.
372  3.71  0.  0.  0.
373  3.72  0.  0.  0.
374  3.73  0.  0.  0.
375  3.74  0.  0.  0.
376  3.75  0.  0.  0.
377  3.76  0.  0.  0.
378  3.77  0.  0.  0.
379  3.78  0.  0.  0.
380  3.79  0.  0.  0.
381  3.80  0.  0.  0.
382  3.81  0.  0.  0.
383  3.82  0.  0.  0.
384  3.83  0.  0.  0.
385  3.84  0.  0.  0.
386  3.85  0.  0.  0.
387  3.86  0.  0.  0.
388  3.87  0.  0.  0.
389  3.88  0.  0.  0.
390  3.89  0.  0.  0.
391  3.90  0.  0.  0.
392  3.91  0.  0.  0.
393  3.92  0.  0.  0.
394  3.93  0.  0.  0.
395  3.94  0.  0.  0.
396  3.95  0.  0.  0.
397  3.96  0.  0.  0.
398  3.97  0.  0.  0.
399  3.98  0.  0.  0.
400  3.99  0.  0.  0.
401  4.00  0.  0.  0.
402  4.01  0.  0.  0.
403  4.02  0.  0.  0.
404  4.03  0.  0.  0.
405  4.04  0.  0.  0.
406  4.05  0.  0.  0.
407  4.06  0.  0.  0.
408  4.07  0.  0.  0.
409  4.08  0.  0.  0.
410  4.09  0.  0.  0.
411  4.10  0.  0.  0.
412  4.11  0.  0.  0.
413  4.12  0.  0.  0.
414  4.13  0.  0.  0.
415  4.14  0.  0.  0.
416  4.15  0.  0.  0.
417  4.16  0.  0.  0.
418  4.17  0.  0.  0.
419  4.18  0.  0.  0.
420  4.19  0.  0.  0.
421  4.20  0.  0.  0.
422  4.21  0.  0.  0.
423  4.22  0.  0.  0.
424  4.23  0.  0.  0.
425  4.24  0.  0.  0.
426  4.25  0.  0.  0.
427  4.26  0.  0.  0.
428  4.27  0.  0.  0.
429  4.28  0.  0.  0.
430  4.29  0.  0.  0.
431  4.30  0.  0.  0.
432  4.31  0.  0.  0.
433  4.32  0.  0.  0.
434  4.33  0.  0.  0.
435  4.34  0.  0.  0.
436  4.35  0.  0.  0.
437  4.36  0.  0.  0.
438  4.37  0.  0.  0.
439  4.38  0.  0.  0.
440  4.39  0.  0.  0.
441  4.40  0.  0.  0.
442  4.41  0.  0.  0.
443  4.42  0.  0.  0.
444  4.43  0.  0.  0.
445  4.44  0.  0.  0.
446  4.45  0.  0.  0.
447  4.46  0.  0.  0.
448  4.47  0.  0.  0.
449  4.48  0.  0.  0.
450  4.49  0.  0.  0.
451  4.50  0.  0.  0.
452  4.51  0.  0.  0.
453  4.52  0.  0.  0.
454  4.53  0.  0.  0.
455  4.54  0.  0.  0.
456  4.55  0.  0.  0.
457  4.56  0.  0.  0.
458  4.57  0.  0.  0.
459  4.58  0.  0.  0.
460  4.59  0.  0.  0.
461  4.60  0.  0.  0.
462  4.61  0.  0.  0.
463  4.62  0.  0.  0.
464  4.63  0.  0.  0.
465  4.64  0.  0.  0.
466  4.65  0.  0.  0.
467  4.66  0.  0.  0.
468  4.67  0.  0.  0.
469  4.68  0.  0.  0.
470  4.69  0.  0.  0.
471  4.70  0.  0.  0.
472  4.71  0.  0.  0.
473  4.72  0.  0.  0.
474  4.73  0.  0.  0.
475  4.74  0.  0.  0.
476  4.75  0.  0.  0.
477  4.76  0.  0.  0.
478  4.77  0.  0.  0.
479  4.78  0.  0.  0.
480  4.79  0.  0.  0.
481  4.80  0.  0.  0.
482  4.81  0.  0.  0.
483  4.82  0.  0.  0.
484  4.83  0.  0.  0.
485  4.84  0.  0.  0.
486  4.85  0.  0.  0.
487  4.86  0.  0.  0.
488  4.87  0.  0.  0.
489  4.88  0.  0.  0.
490  4.89  0.  0.  0.
491  4.90  0.  0.  0.
492  4.91  0.  0.  0.
493  4.92  0.  0.  0.
494  4.93  0.  0.  0.
495  4.94  0.  0.  0.
496  4.95  0.  0.  0.
497  4.96  0.  0.  0.
498  4.97  0.  0.  0.
499  4.98  0.  0.  0.
500  4.99  0.  0.  0.
501  5.00  0.  0.  0.
502  5.01  0.  0.  0.
503  5.02  0.  0.  0.
504  5.03  0.  0.  0.
505  5.04  0.  0.  0.
506  5.05  0.  0.  0.
507  5.06  0.  0.  0.
508  5.07  0.  0.  0.
509  5.08  0.  0.  0.
510  5.09  0.  0.  0.
511  5.10  0.  0.  0.
512  5.11  0.  0.  0.
513  5.12  0.  0.  0.
514  5.13  0.  0.  0.
515  5.14  0.  0.  0.
516  5.15  0.  0.  0.
517  5.16  0.  0.  0.
518  5.17  0.  0.  0.
519  5.18  0.  0.  0.
520  5.19  0.  0.  0.
521  5.20  0.  0.  0.
522  5.21  0.  0.  0.
523  5.22  0.  0.  0.
524  5.23  0.  0.  0.
525  5.24  0.  0.  0.
526  5.25  0.  0.  0.
527  5.26  0.  0.  0.
528  5.27  0.  0.  0.
529  5.28  0.  0.  0.
530  5.29  0.  0.  0.
531  5.30  0.  0.  0.
532  5.31  0.  0.  0.
533  5.32  0.  0.  0.
534  5.33  0.  0.  0.
535  5.34  0.  0.  0.
536  5.35  0.  0.  0.
537  5.36  0.  0.  0.
538  5.37  0.  0.  0.
539  5.38  0.  0.  0.
540  5.39  0.  0.  0.
541  5.40  0.  0.  0.
542  5.41  0.  0.  0.
543  5.42  0.  0.  0.
544  5.43  0.  0.  0.
545  5.44  0.  0.  0.
546  5.45  0.  0.  0.
547  5.46  0.  0.  0.
548  5.47  0.  0.  0.
549  5.48  0.  0.  0.
550  5.49  0.  0.  0.
551  5.50  0.  0.  0.
552  5.51  0.  0.  0.
553  5.52  0.  0.  0.
554  5.53  0.  0.  0.
555  5.54  0.  0.  0.
556  5.55  0.  0.  0.
557  5.56  0.  0.  0.
558  5.57  0.  0.  0.
559  5.58  0.  0.  0.
560  5.59  0.  0.  0.
561  5.60  0.  0.  0.
562  5.61  0.  0.  0.
563  5.62  0.  0.  0.
564  5.63  0.  0.  0.
565  5.64  0.  0.  0.
566  5.65  0.  0.  0.
567  5.66  0.  0.  0.
568  5.67  0.  0.  0.
569  5.68  0.  0.  0.
570  5.69  0.  0.  0.
571  5.70  0.  0.  0.
572  5.71  0.  0.  0.
573  5.72  0.  0.  0.
574  5.73  0.  0.  0.
575  5.74  0.  0.  0.
576  5.75  0.  0.  0.
577  5.76  0.  0.  0.
578  5.77  0.  0.  0.
579  5.78  0.  0.  0.
580  5.79  0.  0.  0.
581  5.80  0.  0.  0.
582  5.81  0.  0.  0.
583  5.82  0.  0.  0.
584  5.83  0.  0.  0.
585  5.84  0.  0.  0.
586  5.85  0.  0.  0.
587  5.86  0.  0.  0.
588  5.87  0.  0.  0.
589  5.88  0.  0.  0.
590  5.89  0.  0.  0.
591  5.90  0.  0.  0.
592  5.91  0.  0.  0.
593  5.92  0.  0.  0.
594  5.93  0.  0.  0.
595  5.94  0.  0.  0.
596  5.95  0.  0.  0.
597  5.96  0.  0.  0.
598  5.97  0.  0.  0.
599  5.98  0.  0.  0.
600  5.99  0.  0.  0.
1                        -7.2134598093016E+00  1.2061233064650E+00 -1.0175515499247E-01
1  0.0000000000000E+00  1.1745469818969E-08  1.9048654366360E-07 -4.0800062739432E-07
2  1.0000000000000E-02  2.3521925293472E-03 -5.0829198502820E-04 -8.2764758604340E-03
3  2.0000000000000E-02  9.3904197890697E-03 -2.0983465072185E-03 -3.2867277395025E-02
4  3.0000000000000E-02  2.1059916888279E-02 -4.9623838805968E-03 -7.3064395196368E-02
5  4.0000000000000E-02  3.7270354586552E-02 -9.4098563821487E-03 -1.2771375517014E-01
6  5.0000000000000E-02  5.7897229706445E-02 -1.5851547803002E-02 -1.9525313553816E-01
7  6.0000000000000E-02  8.2783756828925E-02 -2.4778237424825E-02 -2.7376329893370E-01
8  7.0000000000000E-02  1.1174320874388E-01 -3.6734808907821E-02 -3.6103047743522E-01
9  8.0000000000000E-02  1.4456164138239E-01 -5.2290875063269E-02 -4.5461794038415E-01
10  9.0000000000000E-02  1.8100092948691E-01 -7.2009137477399E-02 -5.5194405322242E-01
11  1.0000000000000E-01  2.2080203240191E-01 -9.6412799542472E-02 -6.5036401249648E-01
12  1.1000000000000E-01  2.6368840531611E-01 -1.2595339861568E-01 -7.4725232594344E-01
13  1.2000000000000E-01  3.0936947017389E-01 -1.6098041580858E-01 -8.4008310140746E-01
14  1.3000000000000E-01  3.5754406230556E-01 -2.0171396048228E-01 -9.2650531416083E-01
15  1.4000000000000E-01  4.0790377349806E-01 -2.4822171319084E-01 -1.0044104346729E+00
16  1.5000000000000E-01  4.6013611952879E-01 -3.0040114992214E-01 -1.0719901095279E+00
17  1.6000000000000E-01  5.1392746980638E-01 -3.5796786825026E-01 -1.1277819848113E+00
18  1.7000000000000E-01  5.6896568830746E-01 -4.2045060028696E-01 -1.1707022283336E+00
19  1.8000000000000E-01  6.2494244800399E-01 -4.8719323728204E-01 -1.2000638263170E+00
20  1.9000000000000E-01  6.8155519492210E-01 -5.5736391652250E-01 -1.2155802814272E+00
21  2.0000000000000E-01  7.3850875231334E-01 -6.2997094354903E-01 -1.2173549008585E+00
22  2.1000000000000E-01  7.9551656959080E-01 -7.0388505253156E-01 -1.2058564137991E+00
23  2.2000000000000E-01  8.5230163413877E-01 -7.7786725555147E-01 -1.1818821756676E+00
24  2.3000000000000E-01  9.0859707632772E-01 -8.5060130747379E-01 -1.1465106820033E+00
25  2.4000000000000E-01  9.6414650859278E-01 -9.2072962594348E-01 -1.1010455098255E+00
26  2.5000000000000E-01  1.0187041478702E+00 -9.8689136327829E-01 -1.0469531134487E+00
27  2.6000000000000E-01  1.0720347767223E+00 -1.0477612344247E+00 -9.8579711328470E-01
28  2.7000000000000E-01  1.1239136019085E+00 -1.1020876665293E+00 -9.1917182201467E-01
29  2.8000000000000E-01  1.1741260698663E+00 -1.1487288528070E+00 -8.4863774874242E-01
30  2.9000000000000E-01  1.2224676965625E+00 -1.1866853658500E+00 -7.7566170865876E-01
31  3.0000000000000E-01  1.2687439645623E+00 -1.2151281107636E+00 -7.0156394795813E-01
32  3.1000000000000E-01  1.3127703331674E+00 -1.2334205719181E+00 -6.2747437991572E-01
33  3.2000000000000E-01  1.3543723983972E+00 -1.2411345221755E+00 -5.5429963059008E-01
34  3.3000000000000E-01  1.3933862288291E+00 -1.2380586120352E+00 -4.8270212726972E-01
35  3.4000000000000E-01  1.4296588913354E+00 -1.2241995287736E+00 -4.1309194792267E-01
36  3.5000000000000E-01  1.4630491680639E+00 -1.1997757018654E+00 -3.4563160589417E-01
37  3.6000000000000E-01  1.4934284531598E+00 -1.1652038197370E+00 -2.8025339249438E-01
38  3.7000000000000E-01  1.5206818052523E+00 -1.1210787030146E+00 -2.1668836284848E-01
39  3.8000000000000E-01  1.5447091201844E+00 -1.0681473399609E+00 -1.5450554890039E-01
40  3.9000000000000E-01  1.5654263783413E+00 -1.0072781204989E+00 -9.3159537922521E-02
41  4.0000000000000E-01  1.5827669126834E+00 -9.3942649692626E-01 -3.2044183359409E-02
42  4.1000000000000E-01  1.5966826375994E+00 -8.6559844440700E-01  2.9450067381836E-02
43  4.2000000000000E-01  1.6071451752356E+00 -7.8681318657072E-01  9.1877924578889E-02
44  4.3000000000000E-01  1.6141468152471E+00 -7.0406668705424E-01  1.5568285538505E-01
45  4.4000000000000E-01  1.6177012460104E+00 -6.1829738467768E-01  2.2114525724019E-01
46  4.5000000000000E-01  1.6178440002330E+00 -5.3035556851776E-01  2.8833777809203E-01
47  4.6000000000000E-01  1.6146325654363E+00 -4.4097765198115E-01  3.5709009412295E-01
48  4.7000000000000E-01  1.6081461197393E+00 -3.5076641681888E-01  4.2696509505478E-01
49  4.8000000000000E-01  1.5984848653832E+00 -2.6017806556141E-01  4.9724798073017E-01
50  4.9000000000000E-01  1.5857689460783E+00 -1.6951665255575E-01  5.6694925697036E-01
51  5.0000000000000E-01  1.5701369490240E+00 -7.8936169564251E-02  6.3482205297097E-01
52  5.1000000000000E-01  1.5517440077970E+00  1.1549747256151E-02  6.9939358815259E-01
53  5.2000000000000E-01  1.5307595376271E+00  1.0205083453334E-01  7.5901001624514E-01
54  5.3000000000000E-01  1.5073646492931E+00  1.9277659217309E-01  8.1189329177597E-01
55  5.4000000000000E-01  1.4817493013817E+00  2.8400697940651E-01  8.5620816205287E-01
56  5.5000000000000E-01  1.4541092624130E+00  3.7605860002783E-01  8.9013690795420E-01
57  5.6000000000000E-01  1.4246429638389E+00  4.6924777003723E-01  9.1195905910990E-01
58  5.7000000000000E-01  1.3935483317619E+00  5.6385201996964E-01  9.2013301032759E-01
59  5.8000000000000E-01  1.3610196890511E+00  6.6007168581724E-01  9.1337627986629E-01
60  5.9000000000000E-01  1.3272448201408E+00  7.5799328175365E-01  8.9074108586890E-01
61  6.0000000000000E-01  1.2924022880688E+00  8.5755632221360E-01  8.5168197998257E-01
62  6.1000000000000E-01  1.2566590872634E+00  9.5852517001747E-01  7.9611246732080E-01
63  6.2000000000000E-01  1.2201687063526E+00  1.0604673333266E+00  7.2444785509302E-01
64  6.3000000000000E-01  1.1830696631114E+00  1.1627394218221E+00  6.3763199941649E-01
65  6.4000000000000E-01  1.1454845589465E+00  1.2644817084058E+00  5.3714614762464E-01
66  6.5000000000000E-01  1.1075196835229E+00  1.3646219357554E+00  4.2499868437220E-01
67  6.6000000000000E-01  1.0692651818166E+00  1.4618886678018E+00  3.0369526319503E-01
68  6.7000000000000E-01  1.0307957766671E+00  1.5548341265767E+00  1.7618951739440E-01
69  6.8000000000000E-01  9.9217202047268E-01  1.6418660878365E+00  4.5815269756033E-02
70  6.9000000000000E-01  9.5344203071768E-01  1.7212880478661E+00 -8.3798126782742E-02
71  7.0000000000000E-01  9.1464364624288E-01  1.7913465323534E+00 -2.0882501225221E-01
72  7.1000000000000E-01  8.7580692523501E-01  1.8502841093010E+00 -3.2535429330889E-01
73  7.2000000000000E-01  8.3695689243283E-01  1.8963964036603E+00 -4.2950853500832E-01
74  7.3000000000000E-01  7.9811643257339E-01  1.9280912025194E+00 -5.1756742903291E-01
75  7.4000000000000E-01  7.5930922007289E-01  1.9439475951544E+00 -5.8609151484204E-01
76  7.5000000000000E-01  7.2056257168733E-01  1.9427730188628E+00 -6.3204188896702E-01
77  7.6000000000000E-01  6.8191010963110E-01  1.9236560835961E+00 -6.5289164551164E-01
78  7.7000000000000E-01  6.4339412741079E-01  1.8860131276713E+00 -6.4672495103891E-01
79  7.8000000000000E-01  6.0506755938014E-01  1.8296266122687E+00 -6.1231996730280E-01
80  7.9000000000000E-01  5.6699546751468E-01  1.7546736901461E+00 -5.4921228802826E-01
81  8.0000000000000E-01  5.2925597478121E-01  1.6617435775418E+00 -4.5773613826666E-01
82  8.1000000000000E-01  4.9194059324532E-01  1.5518427085642E+00 -3.3904127889945E-01
83  8.2000000000000E-01  4.5515391611326E-01  1.4263870472061E+00 -1.9508434234330E-01
84  8.3000000000000E-01  4.1901266554315E-01  1.2871813603643E+00 -2.8594172567742E-02
85  8.4000000000000E-01  3.8364411150819E-01  1.1363857012641E+00  1.5698837568634E-01
86  8.5000000000000E-01  3.4918390043272E-01  9.7646980096405E-01  3.5759483766495E-01
87  8.6000000000000E-01  3.1577335491121E-01  8.1015650018755E-01  5.6863553987830E-01
88  8.7000000000000E-01  2.8355632673357E-01  6.4035575876482E-01  7.8512500222009E-01
89  8.8000000000000E-01  2.5267570389129E-01  4.7009114039672E-01  1.0018226291369E+00
90  8.9000000000000E-01  2.2326968751193E-01  3.0242097242754E-01  1.2133843812150E+00
91  9.0000000000000E-01  1.9546796614564E-01  1.4035661182179E-01  1.4145206606039E+00
92  9.1000000000000E-01  1.6938792200948E-01 -1.3219600193590E-02  1.6001553437985E+00
93  9.2000000000000E-01  1.4513100632818E-01 -1.5563404842279E-01  1.7655807673274E+00
94  9.3000000000000E-01  1.2277941859544E-01 -2.8449660008100E-01  1.9066035239519E+00
95  9.4000000000000E-01  1.0239321738919E-01 -3.9776790838112E-01  2.0196761608119E+00
96  9.5000000000000E-01  8.4007978450638E-02 -4.9381697451822E-01  2.1020102819249E+00
97  9.6000000000000E-01  6.7633099391814E-02 -5.7146697389358E-01  2.1516671346069E+00
98  9.7000000000000E-01  5.3250830118521E-02 -6.3002772276283E-01  2.1676224851884E+00
99  9.8000000000000E-01  4.0816084454981E-02 -6.6931359627931E-01  2.1498034416579E+00
100  9.9000000000000E-01  3.0257062310101E-02 -6.8964619373183E-01  2.0990958312117E+00
101  1.0000000000000E+00  2.1476683880208E-02 -6.9184156582874E-01  2.0173217579772E+00
102  1.0100000000000E+00  1.4354808808079E-02 -6.7718235402287E-01  1.9071880147538E+00