Ts    ONCVPSP-4.0.1  r_core=   1.40055   1.40055   1.45173   1.60713
    117.0000     25.0000      230825    zatom,zion,pspd
     8      11   3     4   600     0    pspcod,pspxc,lmax,lloc,mmax,r2well
  5.99000000  5.00000000  0.00000000    rchrg fchrg qchrg
     2     3     3     3    nproj
     3     1           extension_switch
     4     3     3    nprojso
   0                         1.4238137450552E+01 -2.9951715265330E-01
     1  0.0000000000000E+00  4.0771597209499E-10  9.9023659549946E-09
     2  1.0000000000000E-02  8.1352268126200E-02  2.1352633504569E-02
     3  2.0000000000000E-02  1.6251804118312E-01  4.2825065438149E-02
     4  3.0000000000000E-02  2.4331111191511E-01  6.4531845438180E-02
     5  4.0000000000000E-02  3.2354585275843E-01  8.6577147878332E-02
     6  5.0000000000000E-02  4.0303751574167E-01  1.0904988742423E-01
     7  6.0000000000000E-02  4.8160254415300E-01  1.3201919115885E-01
     8  7.0000000000000E-02  5.5905889940582E-01  1.5553033420483E-01
     9  8.0000000000000E-02  6.3522640612661E-01  1.7960123586882E-01
    10  9.0000000000000E-02  7.0992711799501E-01  2.0421960135058E-01
    11  1.0000000000000E-01  7.8298570629621E-01  2.2934078024956E-01
    12  1.1000000000000E-01  8.5422987251192E-01  2.5488639775260E-01
    13  1.2000000000000E-01  9.2349078559080E-01  2.8074379782326E-01
    14  1.3000000000000E-01  9.9060354381646E-01  3.0676632028216E-01
    15  1.4000000000000E-01  1.0554076604465E+00  3.3277441573787E-01
    16  1.5000000000000E-01  1.1177475715439E+00  3.5855758427540E-01
    17  1.6000000000000E-01  1.1774731636787E+00  3.8387710601694E-01
    18  1.7000000000000E-01  1.2344403184580E+00  4.0846951451177E-01
    19  1.8000000000000E-01  1.2885114701622E+00  4.3205074775315E-01
    20  1.9000000000000E-01  1.3395561721370E+00  4.5432089680196E-01
    21  2.0000000000000E-01  1.3874516670290E+00  4.7496945883481E-01
    22  2.1000000000000E-01  1.4320834554697E+00  4.9368099020875E-01
    23  2.2000000000000E-01  1.4733458574177E+00  5.1014104608587E-01
    24  2.3000000000000E-01  1.5111425600696E+00  5.2404228648346E-01
    25  2.4000000000000E-01  1.5453871460570E+00  5.3509062445432E-01
    26  2.5000000000000E-01  1.5760035955603E+00  5.4301129054843E-01
    27  2.6000000000000E-01  1.6029267559941E+00  5.4755468879954E-01
    28  2.7000000000000E-01  1.6261027730572E+00  5.4850192319861E-01
    29  2.8000000000000E-01  1.6454894771817E+00  5.4566987988596E-01
    30  2.9000000000000E-01  1.6610567197705E+00  5.3891575898672E-01
    31  3.0000000000000E-01  1.6727866540589E+00  5.2814096094882E-01
    32  3.1000000000000E-01  1.6806739559791E+00  5.1329424519032E-01
    33  3.2000000000000E-01  1.6847259810278E+00  4.9437409355154E-01
    34  3.3000000000000E-01  1.6849628538310E+00  4.7143022716760E-01
    35  3.4000000000000E-01  1.6814174878485E+00  4.4456424258576E-01
    36  3.5000000000000E-01  1.6741355334567E+00  4.1392935088640E-01
    37  3.6000000000000E-01  1.6631752534701E+00  3.7972922184293E-01
    38  3.7000000000000E-01  1.6486073259992E+00  3.4221595338513E-01
    39  3.8000000000000E-01  1.6305145753817E+00  3.0168720442168E-01
    40  3.9000000000000E-01  1.6089916327408E+00  2.5848254605093E-01
    41  4.0000000000000E-01  1.5841445285204E+00  2.1297910197656E-01
    42  4.1000000000000E-01  1.5560902200875E+00  1.6558656320883E-01
    43  4.2000000000000E-01  1.5249560581877E+00  1.1674167456248E-01
    44  4.3000000000000E-01  1.4908791966558E+00  6.6902300790433E-02
    45  4.4000000000000E-01  1.4540059503327E+00  1.6541188193476E-02
    46  4.5000000000000E-01  1.4144911065903E+00 -3.3860456956347E-02
    47  4.6000000000000E-01  1.3724971962365E+00 -8.3819448962955E-02
    48  4.7000000000000E-01  1.3281937298363E+00 -1.3285703781995E-01
    49  4.8000000000000E-01  1.2817564056552E+00 -1.8050513698702E-01
    50  4.9000000000000E-01  1.2333662955009E+00 -2.2631224706379E-01
    51  5.0000000000000E-01  1.1832090147104E+00 -2.6984896625857E-01
    52  5.1000000000000E-01  1.1314738824128E+00 -3.1071298856856E-01
    53  5.2000000000000E-01  1.0783530779863E+00 -3.4853350274134E-01
    54  5.3000000000000E-01  1.0240407993465E+00 -3.8297491910704E-01
    55  5.4000000000000E-01  9.6873242834378E-01 -4.1373986694221E-01
    56  5.5000000000000E-01  9.1262370813486E-01 -4.4057142180266E-01
    57  5.6000000000000E-01  8.5590993693024E-01 -4.6325453986883E-01
    58  5.7000000000000E-01  7.9878518202387E-01 -4.8161669438273E-01
    59  5.8000000000000E-01  7.4144151749234E-01 -4.9552772731430E-01
    60  5.9000000000000E-01  6.8406828842571E-01 -5.0489894706673E-01
    61  6.0000000000000E-01  6.2685140403040E-01 -5.0968151990549E-01
    62  6.1000000000000E-01  5.6997266144180E-01 -5.0986421849147E-01
    63  6.2000000000000E-01  5.1360910161056E-01 -5.0547060504578E-01
    64  6.3000000000000E-01  4.5793239819410E-01 -4.9655573894149E-01
    65  6.4000000000000E-01  4.0310828000199E-01 -4.8320250861715E-01
    66  6.5000000000000E-01  3.4929598722041E-01 -4.6551769539044E-01
    67  6.6000000000000E-01  2.9664776138090E-01 -4.4362788183269E-01
    68  6.7000000000000E-01  2.4530836884877E-01 -4.1767531970923E-01
    69  6.8000000000000E-01  1.9541465748716E-01 -3.8781387203164E-01
    70  6.9000000000000E-01  1.4709514610564E-01 -3.5420514049529E-01
    71  7.0000000000000E-01  1.0046964632442E-01 -3.1701488355180E-01
    72  7.1000000000000E-01  5.5648916573458E-02 -2.7640982171178E-01
    73  7.2000000000000E-01  1.2734348093859E-02 -2.3255491557334E-01
    74  7.3000000000000E-01 -2.8182316991328E-02 -1.8561118877383E-01
    75  7.4000000000000E-01 -6.7019235227000E-02 -1.3573415285585E-01
    76  7.5000000000000E-01 -1.0370467841269E-01 -8.3072874278388E-02
    77  7.6000000000000E-01 -1.3817721634851E-01 -2.7769705865648E-02
    78  7.7000000000000E-01 -1.7038586456257E-01  3.0039313706653E-02
    79  7.8000000000000E-01 -2.0029019554927E-01  9.0223407797777E-02
    80  7.9000000000000E-01 -2.2786041177522E-01  1.5265539134633E-01
    81  8.0000000000000E-01 -2.5307737847175E-01  2.1720943463805E-01
    82  8.1000000000000E-01 -2.7593261404261E-01  2.8375833110549E-01
    83  8.2000000000000E-01 -2.9642823578425E-01  3.5217035473631E-01
    84  8.3000000000000E-01 -3.1457685855605E-01  4.2230580656242E-01
    85  8.4000000000000E-01 -3.3040144405767E-01  4.9401336135615E-01
    86  8.5000000000000E-01 -3.4393509847797E-01  5.6712633475560E-01
    87  8.6000000000000E-01 -3.5522081648073E-01  6.4145899730990E-01
    88  8.7000000000000E-01 -3.6431116978954E-01  7.1680306517690E-01
    89  8.8000000000000E-01 -3.7126793902833E-01  7.9292449727939E-01
    90  8.9000000000000E-01 -3.7616168796412E-01  8.6956072556651E-01
    91  9.0000000000000E-01 -3.7907127987887E-01  9.4641843864019E-01
    92  9.1000000000000E-01 -3.8008333646295E-01  1.0231720294731E+00
    93  9.2000000000000E-01 -3.7929164036158E-01  1.0994628054197E+00
    94  9.3000000000000E-01 -3.7679648330857E-01  1.1748990434285E+00
    95  9.4000000000000E-01 -3.7270396263252E-01  1.2490569556016E+00
    96  9.5000000000000E-01 -3.6712522980465E-01  1.3214826103588E+00
    97  9.6000000000000E-01 -3.6017569559655E-01  1.3916948328759E+00
    98  9.7000000000000E-01 -3.5197419731208E-01  1.4591890856138E+00
    99  9.8000000000000E-01 -3.4264213442948E-01  1.5234423061555E+00
   100  9.9000000000000E-01 -3.3230257981894E-01  1.5839186557198E+00
   101  1.0000000000000E+00 -3.2107937446591E-01  1.6400761081646E+00
   102  1.0100000000000E+00 -3.0909621431230E-01  1.6913737865766E+00
   103  1.0200000000000E+00 -2.9647573840688E-01  1.7372799331984E+00
   104  1.0300000000000E+00 -2.8333862801644E-01  1.7772803789480E+00
   105  1.0400000000000E+00 -2.6980272667288E-01  1.8108873616693E+00
   106  1.0500000000000E+00 -2.5598219130696E-01  1.8376485279169E+00
   107  1.0600000000000E+00 -2.4198668463439E-01  1.8571559418985E+00
   108  1.0700000000000E+00 -2.2792061880659E-01  1.8690549175370E+00
   109  1.0800000000000E+00 -2.1388246001268E-01  1.8730524856677E+00
   110  1.0900000000000E+00 -1.9996410321692E-01  1.8689253083800E+00
   111  1.1000000000000E+00 -1.8625032554341E-01  1.8565268564786E+00
   112  1.1100000000000E+00 -1.7281832597498E-01  1.8357936740624E+00
   113  1.1200000000000E+00 -1.5973735803552E-01  1.8067505661151E+00
   114  1.1300000000000E+00 -1.4706846097377E-01  1.7695145607292E+00
   115  1.1400000000000E+00 -1.3486429369156E-01  1.7242975167487E+00
   116  1.1500000000000E+00 -1.2316907426439E-01  1.6714072700627E+00
   117  1.1600000000000E+00 -1.1201862642440E-01  1.6112472368825E+00
   118  1.1700000000000E+00 -1.0144053282053E-01  1.5443144199242E+00
   119  1.1800000000000E+00 -9.1454393286252E-02  1.4711957925697E+00
   120  1.1900000000000E+00 -8.2072184730955E-02  1.3925630667351E+00
   121  1.2000000000000E+00 -7.3298717687113E-02  1.3091658811299E+00
   122  1.2100000000000E+00 -6.5132182987608E-02  1.2218234778400E+00
   123  1.2200000000000E+00 -5.7564780571966E-02  1.1314149655488E+00
   124  1.2300000000000E+00 -5.0583421037645E-02  1.0388682969089E+00
   125  1.2400000000000E+00 -4.4170489292257E-02  9.4514811495504E-01
   126  1.2500000000000E+00 -3.8304658558954E-02  8.5124264818658E-01
   127  1.2600000000000E+00 -3.2961742045893E-02  7.5814985589355E-01
   128  1.2700000000000E+00 -2.8115568846483E-02  6.6686304363282E-01
   129  1.2800000000000E+00 -2.3738870098513E-02  5.7835618321563E-01
   130  1.2900000000000E+00 -1.9804161108715E-02  4.9356918188230E-01
   131  1.3000000000000E+00 -1.6284605060517E-02  4.1339335105854E-01
   132  1.3100000000000E+00 -1.3154842737870E-02  3.3865735887431E-01
   133  1.3200000000000E+00 -1.0391784770232E-02  2.7011364094914E-01
   134  1.3300000000000E+00 -7.9753593959937E-03  2.0842564336763E-01
   135  1.3400000000000E+00 -5.8927409127754E-03  1.5406532613434E-01
   136  1.3500000000000E+00 -4.1332908544017E-03  1.0743268291818E-01
   137  1.3600000000000E+00 -2.6851882852648E-03  6.8960117896651E-02
   138  1.3700000000000E+00 -1.5433640010819E-03  3.8926719638327E-02
   139  1.3800000000000E+00 -7.0943859749345E-04  1.7469254228084E-02
   140  1.3900000000000E+00 -1.8882416818595E-04  4.5155324568876E-03
   141  1.4000000000000E+00 -2.5436332670907E-06  5.8664222305186E-05
   142  1.4100000000000E+00 -8.5366182424584E-07  1.9907364836263E-05
   143  1.4200000000000E+00  2.7491439675507E-07 -6.5196550257639E-06
   144  1.43  0.  0.
   145  1.44  0.  0.
   146  1.45  0.  0.
   147  1.46  0.  0.
   148  1.47  0.  0.
   149  1.48  0.  0.
   150  1.49  0.  0.
   151  1.50  0.  0.
   152  1.51  0.  0.
   153  1.52  0.  0.
   154  1.53  0.  0.
   155  1.54  0.  0.
   156  1.55  0.  0.
   157  1.56  0.  0.
   158  1.57  0.  0.
   159  1.58  0.  0.
   160  1.59  0.  0.
   161  1.60  0.  0.
   162  1.61  0.  0.
   163  1.62  0.  0.
   164  1.63  0.  0.
   165  1.64  0.  0.
   166  1.65  0.  0.
   167  1.66  0.  0.
   168  1.67  0.  0.
   169  1.68  0.  0.
   170  1.69  0.  0.
   171  1.70  0.  0.
   172  1.71  0.  0.
   173  1.72  0.  0.
   174  1.73  0.  0.
   175  1.74  0.  0.
   176  1.75  0.  0.
   177  1.76  0.  0.
   178  1.77  0.  0.
   179  1.78  0.  0.
   180  1.79  0.  0.
   181  1.80  0.  0.
   182  1.81  0.  0.
   183  1.82  0.  0.
   184  1.83  0.  0.
   185  1.84  0.  0.
   186  1.85  0.  0.
   187  1.86  0.  0.
   188  1.87  0.  0.
   189  1.88  0.  0.
   190  1.89  0.  0.
   191  1.90  0.  0.
   192  1.91  0.  0.
   193  1.92  0.  0.
   194  1.93  0.  0.
   195  1.94  0.  0.
   196  1.95  0.  0.
   197  1.96  0.  0.
   198  1.97  0.  0.
   199  1.98  0.  0.
   200  1.99  0.  0.
   201  2.00  0.  0.
   202  2.01  0.  0.
   203  2.02  0.  0.
   204  2.03  0.  0.
   205  2.04  0.  0.
   206  2.05  0.  0.
   207  2.06  0.  0.
   208  2.07  0.  0.
   209  2.08  0.  0.
   210  2.09  0.  0.
   211  2.10  0.  0.
   212  2.11  0.  0.
   213  2.12  0.  0.
   214  2.13  0.  0.
   215  2.14  0.  0.
   216  2.15  0.  0.
   217  2.16  0.  0.
   218  2.17  0.  0.
   219  2.18  0.  0.
   220  2.19  0.  0.
   221  2.20  0.  0.
   222  2.21  0.  0.
   223  2.22  0.  0.
   224  2.23  0.  0.
   225  2.24  0.  0.
   226  2.25  0.  0.
   227  2.26  0.  0.
   228  2.27  0.  0.
   229  2.28  0.  0.
   230  2.29  0.  0.
   231  2.30  0.  0.
   232  2.31  0.  0.
   233  2.32  0.  0.
   234  2.33  0.  0.
   235  2.34  0.  0.
   236  2.35  0.  0.
   237  2.36  0.  0.
   238  2.37  0.  0.
   239  2.38  0.  0.
   240  2.39  0.  0.
   241  2.40  0.  0.
   242  2.41  0.  0.
   243  2.42  0.  0.
   244  2.43  0.  0.
   245  2.44  0.  0.
   246  2.45  0.  0.
   247  2.46  0.  0.
   248  2.47  0.  0.
   249  2.48  0.  0.
   250  2.49  0.  0.
   251  2.50  0.  0.
   252  2.51  0.  0.
   253  2.52  0.  0.
   254  2.53  0.  0.
   255  2.54  0.  0.
   256  2.55  0.  0.
   257  2.56  0.  0.
   258  2.57  0.  0.
   259  2.58  0.  0.
   260  2.59  0.  0.
   261  2.60  0.  0.
   262  2.61  0.  0.
   263  2.62  0.  0.
   264  2.63  0.  0.
   265  2.64  0.  0.
   266  2.65  0.  0.
   267  2.66  0.  0.
   268  2.67  0.  0.
   269  2.68  0.  0.
   270  2.69  0.  0.
   271  2.70  0.  0.
   272  2.71  0.  0.
   273  2.72  0.  0.
   274  2.73  0.  0.
   275  2.74  0.  0.
   276  2.75  0.  0.
   277  2.76  0.  0.
   278  2.77  0.  0.
   279  2.78  0.  0.
   280  2.79  0.  0.
   281  2.80  0.  0.
   282  2.81  0.  0.
   283  2.82  0.  0.
   284  2.83  0.  0.
   285  2.84  0.  0.
   286  2.85  0.  0.
   287  2.86  0.  0.
   288  2.87  0.  0.
   289  2.88  0.  0.
   290  2.89  0.  0.
   291  2.90  0.  0.
   292  2.91  0.  0.
   293  2.92  0.  0.
   294  2.93  0.  0.
   295  2.94  0.  0.
   296  2.95  0.  0.
   297  2.96  0.  0.
   298  2.97  0.  0.
   299  2.98  0.  0.
   300  2.99  0.  0.
   301  3.00  0.  0.
   302  3.01  0.  0.
   303  3.02  0.  0.
   304  3.03  0.  0.
   305  3.04  0.  0.
   306  3.05  0.  0.
   307  3.06  0.  0.
   308  3.07  0.  0.
   309  3.08  0.  0.
   310  3.09  0.  0.
   311  3.10  0.  0.
   312  3.11  0.  0.
   313  3.12  0.  0.
   314  3.13  0.  0.
   315  3.14  0.  0.
   316  3.15  0.  0.
   317  3.16  0.  0.
   318  3.17  0.  0.
   319  3.18  0.  0.
   320  3.19  0.  0.
   321  3.20  0.  0.
   322  3.21  0.  0.
   323  3.22  0.  0.
   324  3.23  0.  0.
   325  3.24  0.  0.
   326  3.25  0.  0.
   327  3.26  0.  0.
   328  3.27  0.  0.
   329  3.28  0.  0.
   330  3.29  0.  0.
   331  3.30  0.  0.
   332  3.31  0.  0.
   333  3.32  0.  0.
   334  3.33  0.  0.
   335  3.34  0.  0.
   336  3.35  0.  0.
   337  3.36  0.  0.
   338  3.37  0.  0.
   339  3.38  0.  0.
   340  3.39  0.  0.
   341  3.40  0.  0.
   342  3.41  0.  0.
   343  3.42  0.  0.
   344  3.43  0.  0.
   345  3.44  0.  0.
   346  3.45  0.  0.
   347  3.46  0.  0.
   348  3.47  0.  0.
   349  3.48  0.  0.
   350  3.49  0.  0.
   351  3.50  0.  0.
   352  3.51  0.  0.
   353  3.52  0.  0.
   354  3.53  0.  0.
   355  3.54  0.  0.
   356  3.55  0.  0.
   357  3.56  0.  0.
   358  3.57  0.  0.
   359  3.58  0.  0.
   360  3.59  0.  0.
   361  3.60  0.  0.
   362  3.61  0.  0.
   363  3.62  0.  0.
   364  3.63  0.  0.
   365  3.64  0.  0.
   366  3.65  0.  0.
   367  3.66  0.  0.
   368  3.67  0.  0.
   369  3.68  0.  0.
   370  3.69  0.  0.
   371  3.70  0.  0.
   372  3.71  0.  0.
   373  3.72  0.  0.
   374  3.73  0.  0.
   375  3.74  0.  0.
   376  3.75  0.  0.
   377  3.76  0.  0.
   378  3.77  0.  0.
   379  3.78  0.  0.
   380  3.79  0.  0.
   381  3.80  0.  0.
   382  3.81  0.  0.
   383  3.82  0.  0.
   384  3.83  0.  0.
   385  3.84  0.  0.
   386  3.85  0.  0.
   387  3.86  0.  0.
   388  3.87  0.  0.
   389  3.88  0.  0.
   390  3.89  0.  0.
   391  3.90  0.  0.
   392  3.91  0.  0.
   393  3.92  0.  0.
   394  3.93  0.  0.
   395  3.94  0.  0.
   396  3.95  0.  0.
   397  3.96  0.  0.
   398  3.97  0.  0.
   399  3.98  0.  0.
   400  3.99  0.  0.
   401  4.00  0.  0.
   402  4.01  0.  0.
   403  4.02  0.  0.
   404  4.03  0.  0.
   405  4.04  0.  0.
   406  4.05  0.  0.
   407  4.06  0.  0.
   408  4.07  0.  0.
   409  4.08  0.  0.
   410  4.09  0.  0.
   411  4.10  0.  0.
   412  4.11  0.  0.
   413  4.12  0.  0.
   414  4.13  0.  0.
   415  4.14  0.  0.
   416  4.15  0.  0.
   417  4.16  0.  0.
   418  4.17  0.  0.
   419  4.18  0.  0.
   420  4.19  0.  0.
   421  4.20  0.  0.
   422  4.21  0.  0.
   423  4.22  0.  0.
   424  4.23  0.  0.
   425  4.24  0.  0.
   426  4.25  0.  0.
   427  4.26  0.  0.
   428  4.27  0.  0.
   429  4.28  0.  0.
   430  4.29  0.  0.
   431  4.30  0.  0.
   432  4.31  0.  0.
   433  4.32  0.  0.
   434  4.33  0.  0.
   435  4.34  0.  0.
   436  4.35  0.  0.
   437  4.36  0.  0.
   438  4.37  0.  0.
   439  4.38  0.  0.
   440  4.39  0.  0.
   441  4.40  0.  0.
   442  4.41  0.  0.
   443  4.42  0.  0.
   444  4.43  0.  0.
   445  4.44  0.  0.
   446  4.45  0.  0.
   447  4.46  0.  0.
   448  4.47  0.  0.
   449  4.48  0.  0.
   450  4.49  0.  0.
   451  4.50  0.  0.
   452  4.51  0.  0.
   453  4.52  0.  0.
   454  4.53  0.  0.
   455  4.54  0.  0.
   456  4.55  0.  0.
   457  4.56  0.  0.
   458  4.57  0.  0.
   459  4.58  0.  0.
   460  4.59  0.  0.
   461  4.60  0.  0.
   462  4.61  0.  0.
   463  4.62  0.  0.
   464  4.63  0.  0.
   465  4.64  0.  0.
   466  4.65  0.  0.
   467  4.66  0.  0.
   468  4.67  0.  0.
   469  4.68  0.  0.
   470  4.69  0.  0.
   471  4.70  0.  0.
   472  4.71  0.  0.
   473  4.72  0.  0.
   474  4.73  0.  0.
   475  4.74  0.  0.
   476  4.75  0.  0.
   477  4.76  0.  0.
   478  4.77  0.  0.
   479  4.78  0.  0.
   480  4.79  0.  0.
   481  4.80  0.  0.
   482  4.81  0.  0.
   483  4.82  0.  0.
   484  4.83  0.  0.
   485  4.84  0.  0.
   486  4.85  0.  0.
   487  4.86  0.  0.
   488  4.87  0.  0.
   489  4.88  0.  0.
   490  4.89  0.  0.
   491  4.90  0.  0.
   492  4.91  0.  0.
   493  4.92  0.  0.
   494  4.93  0.  0.
   495  4.94  0.  0.
   496  4.95  0.  0.
   497  4.96  0.  0.
   498  4.97  0.  0.
   499  4.98  0.  0.
   500  4.99  0.  0.
   501  5.00  0.  0.
   502  5.01  0.  0.
   503  5.02  0.  0.
   504  5.03  0.  0.
   505  5.04  0.  0.
   506  5.05  0.  0.
   507  5.06  0.  0.
   508  5.07  0.  0.
   509  5.08  0.  0.
   510  5.09  0.  0.
   511  5.10  0.  0.
   512  5.11  0.  0.
   513  5.12  0.  0.
   514  5.13  0.  0.
   515  5.14  0.  0.
   516  5.15  0.  0.
   517  5.16  0.  0.
   518  5.17  0.  0.
   519  5.18  0.  0.
   520  5.19  0.  0.
   521  5.20  0.  0.
   522  5.21  0.  0.
   523  5.22  0.  0.
   524  5.23  0.  0.
   525  5.24  0.  0.
   526  5.25  0.  0.
   527  5.26  0.  0.
   528  5.27  0.  0.
   529  5.28  0.  0.
   530  5.29  0.  0.
   531  5.30  0.  0.
   532  5.31  0.  0.
   533  5.32  0.  0.
   534  5.33  0.  0.
   535  5.34  0.  0.
   536  5.35  0.  0.
   537  5.36  0.  0.
   538  5.37  0.  0.
   539  5.38  0.  0.
   540  5.39  0.  0.
   541  5.40  0.  0.
   542  5.41  0.  0.
   543  5.42  0.  0.
   544  5.43  0.  0.
   545  5.44  0.  0.
   546  5.45  0.  0.
   547  5.46  0.  0.
   548  5.47  0.  0.
   549  5.48  0.  0.
   550  5.49  0.  0.
   551  5.50  0.  0.
   552  5.51  0.  0.
   553  5.52  0.  0.
   554  5.53  0.  0.
   555  5.54  0.  0.
   556  5.55  0.  0.
   557  5.56  0.  0.
   558  5.57  0.  0.
   559  5.58  0.  0.
   560  5.59  0.  0.
   561  5.60  0.  0.
   562  5.61  0.  0.
   563  5.62  0.  0.
   564  5.63  0.  0.
   565  5.64  0.  0.
   566  5.65  0.  0.
   567  5.66  0.  0.
   568  5.67  0.  0.
   569  5.68  0.  0.
   570  5.69  0.  0.
   571  5.70  0.  0.
   572  5.71  0.  0.
   573  5.72  0.  0.
   574  5.73  0.  0.
   575  5.74  0.  0.
   576  5.75  0.  0.
   577  5.76  0.  0.
   578  5.77  0.  0.
   579  5.78  0.  0.
   580  5.79  0.  0.
   581  5.80  0.  0.
   582  5.81  0.  0.
   583  5.82  0.  0.
   584  5.83  0.  0.
   585  5.84  0.  0.
   586  5.85  0.  0.
   587  5.86  0.  0.
   588  5.87  0.  0.
   589  5.88  0.  0.
   590  5.89  0.  0.
   591  5.90  0.  0.
   592  5.91  0.  0.
   593  5.92  0.  0.
   594  5.93  0.  0.
   595  5.94  0.  0.
   596  5.95  0.  0.
   597  5.96  0.  0.
   598  5.97  0.  0.
   599  5.98  0.  0.
   600  5.99  0.  0.
   1                         1.1059650500173E+01  8.9210150930237E-01 -8.3630392460967E-02
     1  0.0000000000000E+00 -2.5096591610430E-09  9.4564327063340E-09 -3.7830225934482E-08
     2  1.0000000000000E-02  1.7262851057009E-03 -9.1323684724648E-04  2.8682375172821E-04
     3  2.0000000000000E-02  6.8999206843852E-03 -3.6522311263755E-03  1.1684007318824E-03
     4  3.0000000000000E-02  1.5505212894055E-02 -8.2146537069721E-03  2.7072251252570E-03
     5  4.0000000000000E-02  2.7515891498282E-02 -1.4596027552857E-02  5.0047344510688E-03
     6  5.0000000000000E-02  4.2894944636159E-02 -2.2788855794937E-02  8.1973132017281E-03
     7  6.0000000000000E-02  6.1594398385128E-02 -3.2781442053273E-02  1.2450861305659E-02
     8  7.0000000000000E-02  8.3555051645460E-02 -4.4556442685267E-02  1.7954085532898E-02
     9  8.0000000000000E-02  1.0870617938482E-01 -5.8089200093326E-02  2.4910709792438E-02
    10  9.0000000000000E-02  1.3696521943450E-01 -7.3345914338666E-02  3.3530832848947E-02
    11  1.0000000000000E-01  1.6823745976535E-01 -9.0281716852464E-02  4.4021688433696E-02
    12  1.1000000000000E-01  2.0241574444121E-01 -1.0883871482515E-01  5.6578082309693E-02
    13  1.2000000000000E-01  2.3938021721300E-01 -1.2894407774962E-01  7.1372793027948E-02
    14  1.3000000000000E-01  2.7899812195293E-01 -1.5050823850354E-01  8.8547227522844E-02
    15  1.4000000000000E-01  3.2112367882292E-01 -1.7342328023967E-01  1.0820261918189E-01
    16  1.5000000000000E-01  3.6559805422828E-01 -1.9756157722639E-01  1.3039204464228E-01
    17  1.6000000000000E-01  4.1224944124169E-01 -2.2277475270745E-01  1.5511351656752E-01
    18  1.7000000000000E-01  4.6089326532429E-01 -2.4889300995023E-01  1.8230438349894E-01
    19  1.8000000000000E-01  5.1133252786207E-01 -2.7572488408989E-01  2.1183723520351E-01
    20  1.9000000000000E-01  5.6335829733131E-01 -3.0305745236382E-01  2.4351747357157E-01
    21  2.0000000000000E-01  6.1675035487143E-01 -3.3065702911709E-01  2.7708266602414E-01
    22  2.1000000000000E-01  6.7127799775004E-01 -3.5827035982686E-01  3.1220375167505E-01
    23  2.2000000000000E-01  7.2670100073469E-01 -3.8562631565275E-01  3.4848812135565E-01
    24  2.3000000000000E-01  7.8277073182402E-01 -4.1243807699619E-01  3.8548454232792E-01
    25  2.4000000000000E-01  8.3923141522620E-01 -4.3840578158453E-01  4.2268984839465E-01
    26  2.5000000000000E-01  8.9582153099379E-01 -4.6321960002174E-01  4.5955726748408E-01
    27  2.6000000000000E-01  9.5227533741980E-01 -4.8656318990038E-01  4.9550621292998E-01
    28  2.7000000000000E-01  1.0083244992527E+00 -5.0811746876386E-01  5.2993332281612E-01
    29  2.8000000000000E-01  1.0636998020769E+00 -5.2756463673636E-01  5.6222449504186E-01
    30  2.9000000000000E-01  1.1181329309012E+00 -5.4459237176032E-01  5.9176763520537E-01
    31  3.0000000000000E-01  1.1713582891561E+00 -5.5889811431965E-01  6.1796581085393E-01
    32  3.1000000000000E-01  1.2231148329808E+00 -5.7019335445842E-01  6.4025048980662E-01
    33  3.2000000000000E-01  1.2731478949050E+00 -5.7820783195722E-01  6.5809453260708E-01
    34  3.3000000000000E-01  1.3212109708368E+00 -5.8269356077706E-01  6.7102461000282E-01
    35  3.4000000000000E-01  1.3670674446495E+00 -5.8342859134337E-01  6.7863272574364E-01
    36  3.5000000000000E-01  1.4104922256282E+00 -5.8022042888154E-01  6.8058654279731E-01
    37  3.6000000000000E-01  1.4512732755525E+00 -5.7290903273858E-01  6.7663823692850E-01
    38  3.7000000000000E-01  1.4892130042363E+00 -5.6136933028327E-01  6.6663163489901E-01
    39  3.8000000000000E-01  1.5241295148613E+00 -5.4551318937163E-01  6.5050743454659E-01
    40  3.9000000000000E-01  1.5558576833728E+00 -5.2529080525017E-01  6.2830634972840E-01
    41  4.0000000000000E-01  1.5842500594801E+00 -5.0069147085967E-01  6.0017007345921E-01
    42  4.1000000000000E-01  1.6091775803459E+00 -4.7174371347756E-01  5.6634000628396E-01
    43  4.2000000000000E-01  1.6305300917619E+00 -4.3851479515188E-01  5.2715375265616E-01
    44  4.3000000000000E-01  1.6482166754159E+00 -4.0110958907054E-01  4.8303944442867E-01
    45  4.4000000000000E-01  1.6621657846472E+00 -3.5966885850458E-01  4.3450800605913E-01
    46  4.5000000000000E-01  1.6723251947809E+00 -3.1436697889449E-01  3.8214352934406E-01
    47  4.6000000000000E-01  1.6786617776313E+00 -2.6540915665206E-01  3.2659197502577E-01
    48  4.7000000000000E-01  1.6811611129826E+00 -2.1302820998940E-01  2.6854846314177E-01
    49  4.8000000000000E-01  1.6798269527059E+00 -1.5748098724947E-01  2.0874345230002E-01
    50  4.9000000000000E-01  1.6746805556008E+00 -9.9044506524322E-02  1.4792813909875E-01
    51  5.0000000000000E-01  1.6657599129689E+00 -3.8011906580734E-02  8.6859431781921E-02
    52  5.1000000000000E-01  1.6531188863210E+00  2.5311696911918E-02  2.6284866235326E-02
    53  5.2000000000000E-01  1.6368262794218E+00  9.0613354261276E-02 -3.3072162883525E-02
    54  5.3000000000000E-01  1.6169648670981E+00  1.5757632899504E-01 -9.0526487965864E-02
    55  5.4000000000000E-01  1.5936304028465E+00  2.2588395801179E-01 -1.4544421774081E-01
    56  5.5000000000000E-01  1.5669306263125E+00  2.9522323885038E-01 -1.9725442029371E-01
    57  5.6000000000000E-01  1.5369842901809E+00  3.6528806620913E-01 -2.4545914262730E-01
    58  5.7000000000000E-01  1.5039202239747E+00  4.3578204983308E-01 -2.8964151021506E-01
    59  5.8000000000000E-01  1.4678764497601E+00  5.0642085770285E-01 -3.2947169777164E-01
    60  5.9000000000000E-01  1.4289993618600E+00  5.7693404180802E-01 -3.6471061623342E-01
    61  6.0000000000000E-01  1.3874429794833E+00  6.4706631833835E-01 -3.9521121939505E-01
    62  6.1000000000000E-01  1.3433682777576E+00  7.1657828950643E-01 -4.2091739533167E-01
    63  6.2000000000000E-01  1.2969425991142E+00  7.8524661002849E-01 -4.4186047109729E-01
    64  6.3000000000000E-01  1.2483391434141E+00  8.5286361712275E-01 -4.5815342260824E-01
    65  6.4000000000000E-01  1.1977365317216E+00  9.1923645831782E-01 -4.6998294345304E-01
    66  6.5000000000000E-01  1.1453184353400E+00  9.8418576598054E-01 -4.7759958498580E-01
    67  6.6000000000000E-01  1.0912732587010E+00  1.0475439408760E+00 -4.8130623389752E-01
    68  6.7000000000000E-01  1.0357938620590E+00  1.1091531188859E+00 -4.8144524104183E-01
    69  6.8000000000000E-01  9.7907730774786E-01  1.1688629048993E+00 -4.7838455529737E-01
    70  6.9000000000000E-01  9.2132461209154E-01  1.2265279655566E+00 -4.7250324751692E-01
    71  7.0000000000000E-01  8.6274048397887E-01  1.2820055777371E+00 -4.6417683120135E-01
    72  7.1000000000000E-01  8.0353303065364E-01  1.3351532322524E+00 -4.5376279772760E-01
    73  7.2000000000000E-01  7.4391341146911E-01  1.3858263920248E+00 -4.4158678429922E-01
    74  7.3000000000000E-01  6.8409542121338E-01  1.4338765010615E+00 -4.2792978209015E-01
    75  7.4000000000000E-01  6.2429498612279E-01  1.4791493347912E+00 -4.1301677041078E-01
    76  7.5000000000000E-01  5.6472955783848E-01  1.5214837739340E+00 -3.9700713051945E-01
    77  7.6000000000000E-01  5.0561739327996E-01  1.5607110731809E+00 -3.7998715058738E-01
    78  7.7000000000000E-01  4.4717671164917E-01  1.5966546828233E+00 -3.6196488221629E-01
    79  7.8000000000000E-01  3.8962472346197E-01  1.6291306663868E+00 -3.4286754997628E-01
    80  7.9000000000000E-01  3.3317653053960E-01  1.6579487406597E+00 -3.2254165005539E-01
    81  8.0000000000000E-01  2.7804390017949E-01  1.6829139466600E+00 -3.0075580387244E-01
    82  8.1000000000000E-01  2.2443392114986E-01  1.7038289415174E+00 -2.7720635911230E-01
    83  8.2000000000000E-01  1.7254755359822E-01  1.7204968824181E+00 -2.5152565594408E-01
    84  8.3000000000000E-01  1.2257808930818E-01  1.7327248551717E+00 -2.2329280206728E-01
    85  8.4000000000000E-01  7.4709542859364E-02  1.7403277821014E+00 -1.9204672861626E-01
    86  8.5000000000000E-01  2.9114998022069E-02  1.7431327273132E+00 -1.5730123172449E-01
    87  8.6000000000000E-01 -1.4045062962196E-02  1.7409835024380E+00 -1.1856164351521E-01
    88  8.7000000000000E-01 -5.4624416806558E-02  1.7337454630869E+00 -7.5342723120899E-02
    89  8.8000000000000E-01 -9.2492710802065E-02  1.7213103759037E+00 -2.7187314553873E-02
    90  8.9000000000000E-01 -1.2753699476329E-01  1.7036012285668E+00  2.6314714845145E-02
    91  9.0000000000000E-01 -1.5966313885145E-01  1.6805768506568E+00  8.5507763016649E-02
    92  9.1000000000000E-01 -1.8879710310073E-01  1.6522362121480E+00  1.5065252533608E-01
    93  9.2000000000000E-01 -2.1488602560726E-01  1.6186222685248E+00  2.2190928266447E-01
    94  9.3000000000000E-01 -2.3789909833842E-01  1.5798252271910E+00  2.9932294037525E-01
    95  9.4000000000000E-01 -2.5782820236393E-01  1.5359851188808E+00  3.8281028319780E-01
    96  9.5000000000000E-01 -2.7468827795672E-01  1.4872935700434E+00  4.7214986800444E-01
    97  9.6000000000000E-01 -2.8851740939807E-01  1.4339946874492E+00  5.6697492231270E-01
    98  9.7000000000000E-01 -2.9937660936577E-01  1.3763849842298E+00  6.6676955138509E-01
    99  9.8000000000000E-01 -3.0734929338250E-01  1.3148122968528E+00  7.7086848281768E-01
   100  9.9000000000000E-01 -3.1254044083823E-01  1.2496736646958E+00  8.7846049604664E-01
   101  1.0000000000000E+00 -3.1507544544349E-01  1.1814121674191E+00  9.8859559714851E-01
   102  1.0100000000000E+00 -3.1509866447638E-01  1.1105127397086E+00  1.1001959087050E+00
   103  1.0200000000000E+00 -3.1277168270227E-01  1.0374970075714E+00  1.2120701525727E+00
   104  1.0300000000000E+00 -3.0827131322755E-01  9.6291721466195E-01  1.3229315122074E+00
   105  1.0400000000000E+00 -3.0178736363082E-01  8.8734933046011E-01  1.4314185731915E+00
   106  1.0500000000000E+00 -2.9352020134920E-01  8.1138545393308E-01  1.5361189579467E+00
   107  1.0600000000000E+00 -2.8367815735215E-01  7.3562564607678E-01  1.6355951952381E+00
   108  1.0700000000000E+00 -2.7247481145629E-01  6.6066934184886E-01  1.7284122992693E+00