<UPF version="2.0.1">
<PP_INFO>
Generated in analytical, separable form
Author: Goedecker/Hartwigsen/Hutter/Teter
Generation date: Phys.Rev.B58, 3641 (1998); B54, 1703 (1996)
Pseudopotential type: NC
Element: Ag
Functional: SLA-PW-PBX-PBC

Suggested minimum cutoff for wavefunctions:   0. Ry
Suggested minimum cutoff for charge density:   0. Ry
The Pseudo was generated with a Non-Relativistic Calculation
Local Potential: unknown format, L component and cutoff radius: -3   0.0000

Valence configuration:
nl pn  l   occ       Rcut    Rcut US       E pseu

Generation configuration: not available.
Converted from CPMD format using cpmd2upf v.5.0.1 - PG 10Jul2012
Contains atomic orbitals generated by ld1.x - use with care
</PP_INFO>
<!--                               -->
<!-- END OF HUMAN READABLE SECTION -->
<!--                               -->
<PP_HEADER generated="Generated in analytical, separable form"
author="Goedecker/Hartwigsen/Hutter/Teter"
date="Phys.Rev.B58, 3641 (1998); B54, 1703 (1996)"
comment="Contains atomic orbitals generated by ld1.x - use with care"
element="Ag"
pseudo_type="NC"
relativistic="no"
is_ultrasoft="F"
is_paw="F"
is_coulomb="F"
has_so="F"
has_wfc="F"
has_gipaw="F"
paw_as_gipaw="F"
core_correction="F"
functional="SLA-PW-PBX-PBC"
z_valence="1.100000000000000E+001"
total_psenergy="0.000000000000000E+000"
wfc_cutoff="0.000000000000000E+000"
rho_cutoff="0.000000000000000E+000"
l_max="2"
l_max_rho="0"
l_local="-3"
mesh_size="1237"
number_of_wfc=" 3"
number_of_proj="7"/>
<PP_MESH dx="1.250000000000000E-002" mesh="1237" xmin="-7.000000000000000E+000" rmax="9.946963267046367E+001"
zmesh="4.700000000000000E+001">
<PP_R type="real" size="1237" columns="4">
1.940174394796843E-005  1.964578784402175E-005  1.989290143439536E-005  2.014312333109051E-005
2.039649263178766E-005  2.065304892595551E-005  2.091283230103699E-005  2.117588334871301E-005
2.144224317124490E-005  2.171195338789690E-005  2.198505614143909E-005  2.226159410473231E-005
2.254161048739596E-005  2.282514904255951E-005  2.311225407369910E-005  2.340297044155996E-005
2.369734357116603E-005  2.399541945891771E-005  2.429724467977888E-005  2.460286639455442E-005
2.491233235725903E-005  2.522569092257900E-005  2.554299105342768E-005  2.586428232859606E-005
2.618961495049960E-005  2.651903975302233E-005  2.685260820945988E-005  2.719037244056222E-005
2.753238522267762E-005  2.787869999599915E-005  2.822937087291471E-005  2.858445264646227E-005
2.894400079889136E-005  2.930807151033228E-005  2.967672166757444E-005  3.005000887295493E-005
3.042799145335903E-005  3.081072846933395E-005  3.119827972431709E-005  3.159070577398057E-005
3.198806793569303E-005  3.239042829810067E-005  3.279784973082873E-005  3.321039589430494E-005
3.362813124970674E-005  3.405112106903328E-005  3.447943144530440E-005  3.491312930288779E-005
3.535228240795604E-005  3.579695937907534E-005  3.624722969792711E-005  3.670316372016473E-005
3.716483268640680E-005  3.763230873336852E-005  3.810566490513340E-005  3.858497516456628E-005
3.907031440487037E-005  3.956175846128938E-005  4.005938412295696E-005  4.056326914489525E-005
4.107349226016403E-005  4.159013319216313E-005  4.211327266708929E-005  4.264299242654977E-005
4.317937524033476E-005  4.372250491935019E-005  4.427246632871339E-005  4.482934540101349E-005
4.539322914973847E-005  4.596420568287137E-005  4.654236421665713E-005  4.712779508954292E-005
4.772058977629369E-005  4.832084090228525E-005  4.892864225797736E-005  4.954408881356838E-005
5.016727673383474E-005  5.079830339315688E-005  5.143726739073412E-005  5.208426856599113E-005
5.273940801417784E-005  5.340278810216593E-005  5.407451248444380E-005  5.475468611931276E-005
5.544341528528720E-005  5.614080759770046E-005  5.684697202552022E-005  5.756201890837504E-005
5.828605997379507E-005  5.901920835466997E-005  5.976157860692581E-005  6.051328672742484E-005
6.127445017209028E-005  6.204518787425888E-005  6.282562026326482E-005  6.361586928325660E-005
6.441605841225140E-005  6.522631268142858E-005  6.604675869466614E-005  6.687752464832299E-005
6.771874035126951E-005  6.857053724517077E-005  6.943304842502443E-005  7.030640865995706E-005
7.119075441428239E-005  7.208622386882365E-005  7.299295694250500E-005  7.391109531421391E-005
7.484078244493890E-005  7.578216360018574E-005  7.673538587267511E-005  7.770059820532645E-005
7.867795141453047E-005  7.966759821371448E-005  8.066969323720443E-005  8.168439306438646E-005
8.271185624417299E-005  8.375224331977624E-005  8.480571685379342E-005  8.587244145360763E-005
8.695258379710780E-005  8.804631265873270E-005  8.915379893584212E-005  9.027521567542000E-005
9.141073810111362E-005  9.256054364061211E-005  9.372481195337034E-005  9.490372495868089E-005
9.609746686409927E-005  9.730622419422709E-005  9.853018581985629E-005  9.976954298748108E-005
1.010244893491804E-004  1.022952209928764E-004  1.035819364729737E-004  1.048848368413841E-004
1.062041256789408E-004  1.075400091272088E-004  1.088926959206948E-004  1.102623974194622E-004
1.116493276421571E-004  1.130537032994484E-004  1.144757438278898E-004  1.159156714242070E-004
1.173737110800164E-004  1.188500906169808E-004  1.203450407224066E-004  1.218587949852890E-004
1.233915899328116E-004  1.249436650673032E-004  1.265152629036616E-004  1.281066290072459E-004
1.297180120322476E-004  1.313496637605427E-004  1.330018391410332E-004  1.346747963294840E-004
1.363687967288592E-004  1.380841050301678E-004  1.398209892538217E-004  1.415797207915143E-004
1.433605744486270E-004  1.451638284871665E-004  1.469897646692454E-004  1.488386683011067E-004
1.507108282777046E-004  1.526065371278447E-004  1.545260910598913E-004  1.564697900080518E-004
1.584379376792414E-004  1.604308416005376E-004  1.624488131672332E-004  1.644921676914909E-004
1.665612244516122E-004  1.686563067419256E-004  1.707777419233011E-004  1.729258614743024E-004
1.751010010429794E-004  1.773035004993151E-004  1.795337039883306E-004  1.817919599838583E-004
1.840786213429922E-004  1.863940453612219E-004  1.887385938282608E-004  1.911126330845771E-004
1.935165340786344E-004  1.959506724248540E-004  1.984154284623048E-004  2.009111873141322E-004
2.034383389477343E-004  2.059972782356954E-004  2.085884050174857E-004  2.112121241619364E-004
2.138688456305018E-004  2.165589845413165E-004  2.192829612340583E-004  2.220412013356277E-004
2.248341358266522E-004  2.276622011088282E-004  2.305258390731098E-004  2.334254971687548E-004
2.363616284732406E-004  2.393346917630567E-004  2.423451515853910E-004  2.453934783307156E-004
2.484801483062860E-004  2.516056438105663E-004  2.547704532085877E-004  2.579750710082574E-004
2.612199979376266E-004  2.645057410231294E-004  2.678328136688085E-004  2.712017357365334E-004
2.746130336272313E-004  2.780672403631381E-004  2.815648956710836E-004  2.851065460668261E-004
2.886927449404454E-004  2.923240526428116E-004  2.960010365731411E-004  2.997242712676537E-004
3.034943384893458E-004  3.073118273188910E-004  3.111773342466856E-004  3.150914632660514E-004
3.190548259676107E-004  3.230680416348499E-004  3.271317373408815E-004  3.312465480464275E-004
3.354131166990319E-004  3.396320943335236E-004  3.439041401737420E-004  3.482299217355410E-004
3.526101149310905E-004  3.570454041744888E-004  3.615364824887035E-004  3.660840516138592E-004
3.706888221168833E-004  3.753515135025354E-004  3.800728543258309E-004  3.848535823058787E-004
3.896944444411527E-004  3.945961971262103E-004  3.995596062698810E-004  4.045854474149416E-004
4.096745058592964E-004  4.148275767786807E-004  4.200454653509102E-004  4.253289868816900E-004
4.306789669320084E-004  4.360962414471331E-004  4.415816568872286E-004  4.471360703596177E-004
4.527603497527059E-004  4.584553738715909E-004  4.642220325753781E-004  4.700612269162222E-004
4.759738692801192E-004  4.819608835294675E-004  4.880232051474240E-004  4.941617813840761E-004
5.003775714044491E-004  5.066715464383804E-004  5.130446899322739E-004  5.194979977027667E-004
5.260324780923276E-004  5.326491521268116E-004  5.393490536749989E-004  5.461332296101369E-004
5.530027399735180E-004  5.599586581401131E-004  5.670020709862869E-004  5.741340790596274E-004
5.813557967509057E-004  5.886683524682038E-004  5.960728888132303E-004  6.035705627598533E-004
6.111625458348816E-004  6.188500243011166E-004  6.266341993427083E-004  6.345162872528449E-004
6.424975196237979E-004  6.505791435393638E-004  6.587624217697212E-004  6.670486329687423E-004
6.754390718737862E-004  6.839350495080014E-004  6.925378933851794E-004  7.012489477171780E-004
7.100695736239591E-004  7.190011493462672E-004  7.280450704609794E-004  7.372027500991708E-004
7.464756191669157E-004  7.558651265688716E-004  7.653727394346738E-004  7.749999433481752E-004
7.847482425795747E-004  7.946191603204600E-004  8.046142389218102E-004  8.147350401349928E-004
8.249831453557875E-004  8.353601558714855E-004  8.458676931110919E-004  8.565073988986777E-004
8.672809357099197E-004  8.781899869318628E-004  8.892362571259557E-004  9.004214722943897E-004
9.117473801497912E-004  9.232157503883059E-004  9.348283749661153E-004  9.465870683794366E-004
9.584936679480387E-004  9.705500341023278E-004  9.827580506740451E-004  9.951196251906165E-004
1.007636689173211E-003  1.020311198438542E-003  1.033145133404467E-003  1.046140499399438E-003
1.059299326975829E-003  1.072623672227221E-003  1.086115617109668E-003  1.099777269767008E-003
1.113610764860264E-003  1.127618263901188E-003  1.141801955590003E-003  1.156164056157394E-003
1.170706809710792E-003  1.185432488585030E-003  1.200343393697391E-003  1.215441854907134E-003
1.230730231379542E-003  1.246210911954543E-003  1.261886315519973E-003  1.277758891389531E-003
1.293831119685489E-003  1.310105511726218E-003  1.326584610418584E-003  1.343270990655285E-003
1.360167259717183E-003  1.377276057680693E-003  1.394600057830306E-003  1.412141967076289E-003
1.429904526377655E-003  1.447890511170430E-003  1.466102731801331E-003  1.484544033966887E-003
1.503217299158077E-003  1.522125445110580E-003  1.541271426260670E-003  1.560658234206854E-003
1.580288898177317E-003  1.600166485503243E-003  1.620294102098093E-003  1.640674892942909E-003
1.661312042577727E-003  1.682208775599164E-003  1.703368357164267E-003  1.724794093500708E-003
1.746489332423379E-003  1.768457463857501E-003  1.790701920368307E-003  1.813226177697379E-003
1.836033755305756E-003  1.859128216923839E-003  1.882513171108241E-003  1.906192271805632E-003
1.930169218923670E-003  1.954447758909126E-003  1.979031685333267E-003  2.003924839484611E-003
2.029131110969141E-003  2.054654438318060E-003  2.080498809603193E-003  2.106668263060135E-003
2.133166887719229E-003  2.159998824044491E-003  2.187168264580562E-003  2.214679454607802E-003
2.242536692805625E-003  2.270744331924175E-003  2.299306779464454E-003  2.328228498366999E-003
2.357514007709232E-003  2.387167883411570E-003  2.417194758952421E-003  2.447599326092179E-003
2.478386335606318E-003  2.509560598027713E-003  2.541126984398291E-003  2.573090427030142E-003
2.605455920276212E-003  2.638228521310665E-003  2.671413350919091E-003  2.705015594298631E-003
2.739040501868175E-003  2.773493390088760E-003  2.808379642294260E-003  2.843704709532563E-003
2.879474111417292E-003  2.915693436990266E-003  2.952368345594794E-003  2.989504567759961E-003
3.027107906096034E-003  3.065184236201134E-003  3.103739507579307E-003  3.142779744570146E-003
3.182311047290108E-003  3.222339592585672E-003  3.262871634998479E-003  3.303913507742617E-003
3.345471623694206E-003  3.387552476393411E-003  3.430162641059081E-003  3.473308775616137E-003
3.516997621735884E-003  3.561236005889416E-003  3.606030840414258E-003  3.651389124594442E-003
3.697317945754152E-003  3.743824480365140E-003  3.790915995168053E-003  3.838599848307890E-003
3.886883490483717E-003  3.935774466112858E-003  3.985280414509726E-003  4.035409071079475E-003
4.086168268526685E-003  4.137565938079225E-003  4.189610110727534E-003  4.242308918479473E-003
4.295670595630967E-003  4.349703480052640E-003  4.404416014492610E-003  4.459816747895699E-003
4.515914336739216E-003  4.572717546385546E-003  4.630235252451765E-003  4.688476442196467E-003
4.747450215924040E-003  4.807165788406616E-003  4.867632490323883E-003  4.928859769721040E-003
4.990857193485057E-003  5.053634448839536E-003  5.117201344858346E-003  5.181567813998315E-003
5.246743913651203E-003  5.312739827715183E-003  5.379565868186096E-003  5.447232476768727E-003
5.515750226508332E-003  5.585129823442709E-003  5.655382108275035E-003  5.726518058067743E-003
5.798548787957717E-003  5.871485552893047E-003  5.945339749391647E-003  6.020122917321977E-003
6.095846741706173E-003  6.172523054545860E-003  6.250163836670914E-003  6.328781219611504E-003
6.408387487493663E-003  6.488995078958709E-003  6.570616589106808E-003  6.653264771464976E-003
6.736952539979858E-003  6.821692971035547E-003  6.907499305496804E-003  6.994384950777963E-003
7.082363482937865E-003  7.171448648801157E-003  7.261654368106251E-003  7.352994735680310E-003
7.445484023641607E-003  7.539136683629550E-003  7.633967349062802E-003  7.729990837425774E-003
7.827222152583881E-003  7.925676487127938E-003  8.025369224748023E-003  8.126315942637213E-003
8.228532413925561E-003  8.332034610144663E-003  8.436838703723255E-003  8.542961070514186E-003
8.650418292353175E-003  8.759227159649757E-003  8.869404674010820E-003  8.980968050897141E-003
9.093934722313337E-003  9.208322339531647E-003  9.324148775849988E-003  9.441432129384681E-003
9.560190725898336E-003  9.680443121663270E-003  9.802208106360979E-003  9.925504706018053E-003
1.005035218597904E-002  1.017677005391669E-002  1.030477806288006E-002  1.043439621438099E-002
1.056564476151936E-002  1.069854421214768E-002  1.083311533207552E-002  1.096937914831413E-002
1.110735695236205E-002  1.124707030353186E-002  1.138854103231894E-002  1.153179124381250E-002
1.167684332114950E-002  1.182371992901216E-002  1.197244401716928E-002  1.212303882406220E-002
1.227552788043589E-002  1.242993501301566E-002  1.258628434823011E-002  1.274460031598097E-002
1.290490765346029E-002  1.306723140901570E-002  1.323159694606426E-002  1.339802994705554E-002
1.356655641748454E-002  1.373720268995515E-002  1.390999542829463E-002  1.408496163171988E-002
1.426212863905616E-002  1.444152413300882E-002  1.462317614448877E-002  1.480711305699239E-002
1.499336361103646E-002  1.518195690864899E-002  1.537292241791643E-002  1.556628997758813E-002
1.576208980173869E-002  1.596035248448898E-002  1.616110900478657E-002  1.636439073124619E-002
1.657022942705117E-002  1.677865725491653E-002  1.698970678211441E-002  1.720341098556282E-002
1.741980325697834E-002  1.763891740809363E-002  1.786078767594059E-002  1.808544872819997E-002
1.831293566861826E-002  1.854328404249273E-002  1.877652984222544E-002  1.901270951294715E-002
1.925185995821192E-002  1.949401854576336E-002  1.973922311337347E-002  1.998751197475481E-002
2.023892392554711E-002  2.049349824937919E-002  2.075127472400709E-002  2.101229362752940E-002
2.127659574468086E-002  2.154422237320500E-002  2.181521533030701E-002  2.208961695918778E-002
2.236747013566010E-002  2.264881827484808E-002  2.293370533797089E-002  2.322217583921175E-002
2.351427485267336E-002  2.381004801942087E-002  2.410954155461334E-002  2.441280225472495E-002
2.471987750485709E-002  2.503081528614236E-002  2.534566418324167E-002  2.566447339193577E-002
2.598729272681213E-002  2.631417262904862E-002  2.664516417429500E-002  2.698031908065361E-002
2.731968971676047E-002  2.766332910996790E-002  2.801129095463026E-002  2.836362962049369E-002
2.872040016119157E-002  2.908165832284675E-002  2.944746055278195E-002  2.981786400833987E-002
3.019292656581399E-002  3.057270682949202E-002  3.095726414081281E-002  3.134665858763864E-002
3.174095101364406E-002  3.214020302782283E-002  3.254447701411445E-002  3.295383614115178E-002
3.336834437213126E-002  3.378806647480732E-002  3.421306803161241E-002  3.464341544990448E-002
3.507917597234317E-002  3.552041768739667E-002  3.596720953998069E-002  3.641962134223117E-002
3.687772378441268E-002  3.734158844596382E-002  3.781128780668169E-002  3.828689525804701E-002
3.876848511469170E-002  3.925613262601065E-002  3.974991398791964E-002  4.024990635476107E-002
4.075618785135951E-002  4.126883758522883E-002  4.178793565893293E-002  4.231356318260197E-002
4.284580228660591E-002  4.338473613438758E-002  4.393044893545717E-002  4.448302595855014E-002
4.504255354495055E-002  4.560911912198213E-002  4.618281121666901E-002  4.676371946956814E-002
4.735193464877593E-002  4.794754866411084E-002  4.855065458147456E-002  4.916134663739372E-002
4.977972025374451E-002  5.040587205266257E-002  5.103989987164041E-002  5.168190277881466E-002
5.233198108844576E-002  5.299023637659216E-002  5.365677149698190E-002  5.433169059708358E-002
5.501509913437973E-002  5.570710389284473E-002  5.640781299962996E-002  5.711733594195897E-002
5.783578358423503E-002  5.856326818536395E-002  5.929990341629472E-002  6.004580437778088E-002
6.080108761836522E-002  6.156587115259068E-002  6.234027447944048E-002  6.312441860100997E-002
6.391842604141350E-002  6.472242086592904E-002  6.553652870038368E-002  6.636087675078284E-002
6.719559382318657E-002  6.804081034383569E-002  6.889665837953111E-002  6.976327165826969E-002
7.064078559013934E-002  7.152933728847724E-002  7.242906559129406E-002  7.334011108296758E-002
7.426261611620942E-002  7.519672483430789E-002  7.614258319365065E-002  7.710033898653072E-002
7.807014186423929E-002  7.905214336044905E-002  8.004649691489174E-002  8.105335789733324E-002
8.207288363185056E-002  8.310523342141392E-002  8.415056857277828E-002  8.520905242168779E-002
8.628085035839737E-002  8.736612985351520E-002  8.846506048417042E-002  8.957781396050984E-002
9.070456415252807E-002  9.184548711723503E-002  9.300076112616511E-002  9.417056669323268E-002
9.535508660293759E-002  9.655450593892563E-002  9.776901211290831E-002  9.899879489394624E-002
1.002440464381009E-001  1.015049613184597E-001  1.027817365555379E-001  1.040745716480640E-001
1.053836686041514E-001  1.067092319728630E-001  1.080514688761720E-001  1.094105890413253E-001
1.107868048336139E-001  1.121803312895552E-001  1.135913861504932E-001  1.150201898966206E-001
1.164669657814298E-001  1.179319398665963E-001  1.194153410573013E-001  1.209174011379989E-001
1.224383548086326E-001  1.239784397213080E-001  1.255378965174259E-001  1.271169688652836E-001
1.287159034981478E-001  1.303349502528083E-001  1.319743621086142E-001  1.336343952270035E-001
1.353153089915284E-001  1.370173660483843E-001  1.387408323474492E-001  1.404859771838389E-001
1.422530732399845E-001  1.440423966282400E-001  1.458542269340251E-001  1.476888472595115E-001
1.495465442678574E-001  1.514276082280000E-001  1.533323330600100E-001  1.552610163810178E-001
1.572139595517160E-001  1.591914677234486E-001  1.611938498858904E-001  1.632214189153284E-001
1.652744916235485E-001  1.673533888073382E-001  1.694584352986123E-001  1.715899600151675E-001
1.737482960120778E-001  1.759337805337335E-001  1.781467550665376E-001  1.803875653922634E-001
1.826565616420829E-001  1.849540983512768E-001  1.872805345146301E-001  1.896362336425264E-001
1.920215638177474E-001  1.944368977529857E-001  1.968826128490830E-001  1.993590912539986E-001
2.018667199225219E-001  2.044058906767342E-001  2.069770002672316E-001  2.095804504351189E-001
2.122166479747814E-001  2.148860047974480E-001  2.175889379955533E-001  2.203258699079084E-001
2.230972281856932E-001  2.259034458592768E-001  2.287449614058800E-001  2.316222188180882E-001
2.345356676732256E-001  2.374857632036037E-001  2.404729663676508E-001  2.434977439219389E-001
2.465605684941148E-001  2.496619186567492E-001  2.528022790021150E-001  2.559821402179051E-001
2.592019991639038E-001  2.624623589496226E-001  2.657637290129109E-001  2.691066251995581E-001
2.724915698438945E-001  2.759190918504072E-001  2.793897267763835E-001  2.829040169155912E-001
2.864625113830148E-001  2.900657662006546E-001  2.937143443844064E-001  2.974088160320349E-001
3.011497584122512E-001  3.049377560549135E-001  3.087734008423601E-001  3.126572921018925E-001
3.165900366994222E-001  3.205722491342934E-001  3.246045516353014E-001  3.286875742579154E-001
3.328219549827272E-001  3.370083398151367E-001  3.412473828862910E-001  3.455397465552946E-001
3.498861015127034E-001  3.542871268853224E-001  3.587435103423200E-001  3.632559482026779E-001
3.678251455439925E-001  3.724518163126445E-001  3.771366834353543E-001  3.818804789321415E-001
3.866839440307036E-001  3.915478292822352E-001  3.964728946787025E-001  4.014599097715934E-001
4.065096537921629E-001  4.116229157731876E-001  4.168004946722554E-001  4.220431994966028E-001
4.273518494295250E-001  4.327272739583749E-001  4.381703130041710E-001  4.436818170528387E-001
4.492626472880984E-001  4.549136757260288E-001  4.606357853513206E-001  4.664298702552441E-001
4.722968357753542E-001  4.782375986369495E-001  4.842530870963135E-001  4.903442410857572E-001
4.965120123604834E-001  5.027573646473027E-001  5.090812737952159E-001  5.154847279278933E-001
5.219687275980716E-001  5.285342859438904E-001  5.351824288471995E-001  5.419141950938531E-001
5.487306365360228E-001  5.556328182565528E-001  5.626218187353788E-001  5.696987300180454E-001
5.768646578863384E-001  5.841207220310662E-001  5.914680562270145E-001  5.989078085100991E-001
6.064411413567509E-001  6.140692318655540E-001  6.217932719411692E-001  6.296144684805738E-001
6.375340435616388E-001  6.455532346340838E-001  6.536732947128284E-001  6.618954925737803E-001
6.702211129520841E-001  6.786514567428620E-001  6.871878412044828E-001  6.958316001643866E-001
7.045840842274963E-001  7.134466609872543E-001  7.224207152393100E-001  7.315076491978979E-001
7.407088827149372E-001  7.500258535018843E-001  7.594600173543807E-001  7.690128483797223E-001
7.786858392271917E-001  7.884805013212892E-001  7.983983650978940E-001  8.084409802433996E-001
8.186099159368543E-001  8.289067610951486E-001  8.393331246212884E-001  8.498906356557863E-001
8.605809438312215E-001  8.714057195299962E-001  8.823666541453355E-001  8.934654603455746E-001
9.047038723417618E-001  9.160836461586370E-001  9.276065599090113E-001  9.392744140716011E-001
9.510890317723587E-001  9.630522590693359E-001  9.751659652411382E-001  9.874320430789999E-001
9.998524091825385E-001  1.012429004259228E+000  1.025163793427635E+000  1.038058766524477E+000
1.051115938415536E+000  1.064337349310484E+000  1.077725065081674E+000  1.091281177586930E+000
1.105007804996414E+000  1.118907092123585E+000  1.132981210760333E+000  1.147232360016331E+000
1.161662766662644E+000  1.176274685479669E+000  1.191070399609450E+000  1.206052220912422E+000
1.221222490328643E+000  1.236583578243575E+000  1.252137884858455E+000  1.267887840565340E+000
1.283835906326851E+000  1.299984574060710E+000  1.316336367029105E+000  1.332893840232954E+000
1.349659580811135E+000  1.366636208444721E+000  1.383826375766319E+000  1.401232768774548E+000
1.418858107253728E+000  1.436705145198854E+000  1.454776671245918E+000  1.473075509107631E+000
1.491604518014636E+000  1.510366593162275E+000  1.529364666162959E+000  1.548601705504248E+000
1.568080717012678E+000  1.587804744323425E+000  1.607776869355887E+000  1.628000212795232E+000
1.648477934580019E+000  1.669213234395939E+000  1.690209352175775E+000  1.711469568605645E+000
1.732997205637620E+000  1.754795627008788E+000  1.776868238766836E+000  1.799218489802257E+000
1.821849872387248E+000  1.844765922721381E+000  1.867970221484146E+000  1.891466394394433E+000
1.915258112777062E+000  1.939349094136435E+000  1.963743102737402E+000  1.988443950193440E+000
2.013455496062216E+000  2.038781648448659E+000  2.064426364615605E+000  2.090393651602129E+000
2.116687566849657E+000  2.143312218835939E+000  2.170271767717017E+000  2.197570425977252E+000
2.225212459087537E+000  2.253202186171785E+000  2.281543980681799E+000  2.310242271080632E+000
2.339301541534545E+000  2.368726332613667E+000  2.398521242001473E+000  2.428690925213171E+000
2.459240096323144E+000  2.490173528701530E+000  2.521496055760071E+000  2.553212571707350E+000
2.585328032313510E+000  2.617847455684609E+000  2.650775923046712E+000  2.684118579539833E+000
2.717880635021892E+000  2.752067364882744E+000  2.786684110868483E+000  2.821736281916099E+000
2.857229354998628E+000  2.893168875980957E+000  2.929560460486356E+000  2.966409794773943E+000
3.003722636627170E+000  3.041504816253490E+000  3.079762237195340E+000  3.118500877252578E+000
3.157726789416527E+000  3.197446102815766E+000  3.237665023673822E+000  3.278389836278910E+000
3.319626903965853E+000  3.361382670110375E+000  3.403663659135887E+000  3.446476477532944E+000
3.489827814891528E+000  3.533724444946300E+000  3.578173226635013E+000  3.623181105170237E+000
3.668755113124560E+000  3.714902371529453E+000  3.761630090987925E+000  3.808945572801209E+000
3.856856210109604E+000  3.905369489047659E+000  3.954492989913918E+000  4.004234388355330E+000
4.054601456566600E+000  4.105602064504608E+000  4.157244181118105E+000  4.209535875592884E+000
4.262485318612592E+000  4.316100783635426E+000  4.370390648186880E+000  4.425363395168737E+000
4.481027614184565E+000  4.537392002881831E+000  4.594465368310943E+000  4.652256628301365E+000
4.710774812855046E+000  4.770029065557384E+000  4.830028645005917E+000  4.890782926257001E+000
4.952301402290687E+000  5.014593685494013E+000  5.077669509162972E+000  5.141538729023336E+000
5.206211324770651E+000  5.271697401629582E+000  5.338007191932864E+000  5.405151056720150E+000
5.473139487356915E+000  5.541983107173766E+000  5.611692673126367E+000  5.682279077476216E+000
5.753753349492612E+000  5.826126657175969E+000  5.899410309002856E+000  5.973615755692969E+000
6.048754591998318E+000  6.124838558514959E+000  6.201879543517451E+000  6.279889584816437E+000
6.358880871639586E+000  6.438865746536167E+000  6.519856707305624E+000  6.601866408950349E+000
6.684907665653074E+000  6.768993452779108E+000  6.854136908903756E+000  6.940351337865278E+000
7.027650210843594E+000  7.116047168465220E+000  7.205556022934629E+000  7.296190760192434E+000
7.387965542100740E+000  7.480894708655932E+000  7.574992780229350E+000  7.670274459836121E+000
7.766754635432529E+000  7.864448382242317E+000  7.963370965112174E+000  8.063537840896934E+000
8.164964660874729E+000  8.267667273192528E+000  8.371661725342470E+000  8.476964266669276E+000
8.583591350909266E+000  8.691559638761287E+000  8.800886000489974E+000  8.911587518561786E+000
9.023681490314139E+000  9.137185430658176E+000  9.252117074815503E+000  9.368494381089338E+000
9.486335533670578E+000  9.605658945479053E+000  9.726483261040624E+000  9.848827359400417E+000
9.972710357072703E+000  1.009815161102792E+001  1.022517072171722E+001  1.035378753613506E+001
1.048402215092036E+001  1.061589491549664E+001  1.074942643525168E+001  1.088463757475711E+001
1.102154946102856E+001  1.116018348682682E+001  1.130056131400045E+001  1.144270487687057E+001
1.158663638565807E+001  1.173237832995403E+001  1.187995348223374E+001  1.202938490141500E+001
1.218069593646109E+001  1.233391023002907E+001  1.248905172216403E+001  1.264614465403975E+001
1.280521357174643E+001  1.296628333012612E+001  1.312937909665625E+001  1.329452635538216E+001
1.346175091089902E+001  1.363107889238385E+001  1.380253675767826E+001  1.397615129742255E+001
1.415194963924175E+001  1.432995925198446E+001  1.451020795001480E+001  1.469272389755859E+001
1.487753561310395E+001  1.506467197385745E+001  1.525416222025617E+001  1.544603596053662E+001
1.564032317536113E+001  1.583705422250228E+001  1.603625984158642E+001  1.623797115889684E+001
1.644221969223723E+001  1.664903735585651E+001  1.685845646543536E+001  1.707050974313574E+001
1.728523032271370E+001  1.750265175469665E+001  1.772280801162570E+001  1.794573349336390E+001
1.817146303247133E+001  1.840003189964770E+001  1.863147580924353E+001  1.886583092484060E+001
1.910313386490252E+001  1.934342170849645E+001  1.958673200108683E+001  1.983310276040188E+001
2.008257248237402E+001  2.033518014715484E+001  2.059096522520590E+001  2.084996768346605E+001
2.111222799159630E+001  2.137778712830343E+001  2.164668658774279E+001  2.191896838600202E+001
2.219467506766604E+001  2.247384971246479E+001  2.275653594200454E+001  2.304277792658375E+001
2.333262039209488E+001  2.362610862701287E+001  2.392328848947150E+001  2.422420641442893E+001
2.452890942092316E+001  2.483744511941886E+001  2.514986171924664E+001  2.546620803613582E+001
2.578653349984207E+001  2.611088816187078E+001  2.643932270329780E+001  2.677188844268844E+001
2.710863734411604E+001  2.744962202528164E+001  2.779489576573538E+001  2.814451251520167E+001
2.849852690200892E+001  2.885699424162528E+001  2.921997054530194E+001  2.958751252882479E+001
2.995967762137652E+001  3.033652397451005E+001  3.071811047123469E+001  3.110449673521698E+001
3.149574314009673E+001  3.189191081892071E+001  3.229306167369474E+001  3.269925838505601E+001
3.311056442206712E+001  3.352704405213315E+001  3.394876235104363E+001  3.437578521314075E+001
3.480817936161547E+001  3.524601235893326E+001  3.568935261739071E+001  3.613826940980518E+001
3.659283288033881E+001  3.705311405545869E+001  3.751918485503486E+001  3.799111810357802E+001
3.846898754161840E+001  3.895286783722792E+001  3.944283459768724E+001  3.993896438129947E+001
4.044133470935278E+001  4.095002407823295E+001  4.146511197168883E+001  4.198667887325170E+001
4.251480627881104E+001  4.304957670934854E+001  4.359107372383190E+001  4.413938193227135E+001
4.469458700893999E+001  4.525677570576057E+001  4.582603586586085E+001  4.640245643729896E+001
4.698612748696193E+001  4.757714021463877E+001  4.817558696727053E+001  4.878156125337997E+001
4.939515775768210E+001  5.001647235587910E+001  5.064560212964101E+001  5.128264538177492E+001
5.192770165158512E+001  5.258087173042612E+001  5.324225767745160E+001  5.391196283556141E+001