<UPF version="2.0.1">
<PP_INFO>
Generated in analytical, separable form
Author: Goedecker/Hartwigsen/Hutter/Teter
Generation date: Phys.Rev.B58, 3641 (1998); B54, 1703 (1996)
Pseudopotential type: NC
Element: At
Functional: SLA-PW-PBX-PBC

Suggested minimum cutoff for wavefunctions:   0. Ry
Suggested minimum cutoff for charge density:   0. Ry
The Pseudo was generated with a Non-Relativistic Calculation
Local Potential: unknown format, L component and cutoff radius: -3   0.0000

Valence configuration:
nl pn  l   occ       Rcut    Rcut US       E pseu

Generation configuration: not available.
Converted from CPMD format using cpmd2upf v.5.0.1 - PG 10Jul2012
Atomic orbitals could not be generated by ld1.x - use with care
</PP_INFO>
<!--                               -->
<!-- END OF HUMAN READABLE SECTION -->
<!--                               -->
<PP_HEADER generated="Generated in analytical, separable form"
author="Goedecker/Hartwigsen/Hutter/Teter"
date="Phys.Rev.B58, 3641 (1998); B54, 1703 (1996)"
comment="Atomic orbitals could not be generated by ld1.x - use with care"
element="At"
pseudo_type="NC"
relativistic="no"
is_ultrasoft="F"
is_paw="F"
is_coulomb="F"
has_so="F"
has_wfc="F"
has_gipaw="F"
paw_as_gipaw="F"
core_correction="F"
functional="SLA-PW-PBX-PBC"
z_valence="7.000000000000000E+000"
total_psenergy="0.000000000000000E+000"
wfc_cutoff="0.000000000000000E+000"
rho_cutoff="0.000000000000000E+000"
l_max="2"
l_max_rho="0"
l_local="-3"
mesh_size="1285"
number_of_wfc="0"
number_of_proj="6"/>
<PP_MESH dx="1.250000000000000E-002" mesh="1285" xmin="-7.000000000000000E+000" rmax="1.002180932302249E+002"
zmesh="8.500000000000000E+001">
<PP_R type="real" size="1285" columns="4">
1.072802312417078E-005  1.086296504316497E-005  1.099960432254803E-005  1.113796231248534E-005
1.127806063169435E-005  1.141992117082246E-005  1.156356609586751E-005  1.170901785164131E-005
1.185629916527659E-005  1.200543304977829E-005  1.215644280761926E-005  1.230935203438139E-005
1.246418462244247E-005  1.262096476470937E-005  1.277971695839833E-005  1.294046600886257E-005
1.310323703346827E-005  1.326805546551920E-005  1.343494705823068E-005  1.360393788875362E-005
1.377505436224911E-005  1.394832321601427E-005  1.412377152366001E-005  1.430142669934135E-005
1.448131650204095E-005  1.466346903990646E-005  1.484791277464252E-005  1.503467652595793E-005
1.522378947606880E-005  1.541528117425835E-005  1.560918154149402E-005  1.580552087510267E-005
1.600432985350463E-005  1.620563954100726E-005  1.640948139265881E-005  1.661588725916331E-005
1.682488939185735E-005  1.703652044774936E-005  1.725081349462239E-005  1.746780201620102E-005
1.768751991738321E-005  1.791000152953802E-005  1.813528161587000E-005  1.836339537685097E-005
1.859437845572020E-005  1.882826694405370E-005  1.906509738740361E-005  1.930490679100854E-005
1.954773262557569E-005  1.979361283313578E-005  2.004258583297146E-005  2.029469052762050E-005
2.054996630895435E-005  2.080845306433318E-005  2.107019118283847E-005  2.133522156158371E-005
2.160358561210479E-005  2.187532526683060E-005  2.215048298563503E-005  2.242910176247149E-005
2.271122513209070E-005  2.299689717684314E-005  2.328616253356702E-005  2.357906640056281E-005
2.387565454465569E-005  2.417597330834658E-005  2.448006961705328E-005  2.478799098644276E-005
2.509978552985539E-005  2.541550196582299E-005  2.573518962568100E-005  2.605889846127667E-005
2.638667905277416E-005  2.671858261655773E-005  2.705466101323454E-005  2.739496675573781E-005
2.773955301753215E-005  2.808847364092204E-005  2.844178314546475E-005  2.879953673648921E-005
2.916179031372187E-005  2.952860048002116E-005  2.990002455022186E-005  3.027612056009059E-005
3.065694727539410E-005  3.104256420108143E-005  3.143303159058177E-005  3.182841045521914E-005
3.222876257374551E-005  3.263415050199398E-005  3.304463758265309E-005  3.346028795516433E-005
3.388116656574404E-005  3.430733917753139E-005  3.473887238086408E-005  3.517583360368306E-005
3.561829112206842E-005  3.606631407090756E-005  3.651997245469775E-005  3.697933715848447E-005
3.744447995893725E-005  3.791547353556501E-005  3.839239148207233E-005  3.887530831785861E-005
3.936429949966202E-005  3.985944143334955E-005  4.036081148585570E-005  4.086848799727122E-005
4.138255029308386E-005  4.190307869657329E-005  4.243015454136154E-005  4.296386018412169E-005
4.350427901744626E-005  4.405149548287741E-005  4.460559508410127E-005  4.516666440030781E-005
4.573479109971918E-005  4.631006395328804E-005  4.689257284856813E-005  4.748240880375951E-005
4.807966398193019E-005  4.868443170541690E-005  4.929680647040682E-005  4.991688396170283E-005
5.054476106767458E-005  5.118053589539729E-005  5.182430778598125E-005  5.247617733009413E-005
5.313624638367842E-005  5.380461808386674E-005  5.448139686509701E-005  5.516668847543072E-005
5.586059999307621E-005  5.656323984311988E-005  5.727471781446780E-005  5.799514507700061E-005
5.872463419894373E-005  5.946329916445664E-005  6.021125539144301E-005  6.096861974958499E-005
6.173551057860452E-005  6.251204770675383E-005  6.329835246953906E-005  6.409454772867917E-005
6.490075789130319E-005  6.571710892938940E-005  6.654372839944833E-005  6.738074546245394E-005
6.822829090402526E-005  6.908649715486179E-005  6.995549831143640E-005  7.083543015694775E-005
7.172643018253692E-005  7.262863760877067E-005  7.354219340739484E-005  7.446724032336173E-005
7.540392289713391E-005  7.635238748726926E-005  7.731278229328963E-005  7.828525737883733E-005
7.926996469512314E-005  8.026705810466856E-005  8.127669340534744E-005  8.229902835472961E-005
8.333422269473081E-005  8.438243817657293E-005  8.544383858605754E-005  8.651858976915807E-005
8.760685965793346E-005  8.870881829676788E-005  8.982463786894073E-005  9.095449272353024E-005
9.209855940265615E-005  9.325701666906473E-005  9.443004553406064E-005  9.561782928579072E-005
9.682055351788270E-005  9.803840615844481E-005  9.927157749942985E-005  1.005202602263687E-004
1.017846494484780E-004  1.030649427291462E-004  1.043613401168030E-004  1.056740441761779E-004
1.070032600199508E-004  1.083491953408017E-004  1.097120604438627E-004  1.110920682795790E-004
1.124894344769825E-004  1.139043773773845E-004  1.153371180684921E-004  1.167878804189531E-004
1.182568911133363E-004  1.197443796875515E-004  1.212505785647146E-004  1.227757230914648E-004
1.243200515747371E-004  1.258838053189991E-004  1.274672286639549E-004  1.290705690227233E-004
1.306940769204977E-004  1.323380060336902E-004  1.340026132295692E-004  1.356881586063957E-004
1.373949055340640E-004  1.391231206952543E-004  1.408730741271014E-004  1.426450392633894E-004
1.444392929772759E-004  1.462561156245539E-004  1.480957910874588E-004  1.499586068190243E-004
1.518448538879985E-004  1.537548270243234E-004  1.556888246651874E-004  1.576471490016568E-004
1.596301060258933E-004  1.616380055789664E-004  1.636711613992663E-004  1.657298911715262E-004
1.678145165764618E-004  1.699253633410339E-004  1.720627612893438E-004  1.742270443941696E-004
1.764185508291495E-004  1.786376230216229E-004  1.808846077061345E-004  1.831598559786128E-004
1.854637233512294E-004  1.877965698079483E-004  1.901587598607750E-004  1.925506626067109E-004
1.949726517854265E-004  1.974251058376585E-004  1.999084079643420E-004  2.024229461864869E-004
2.049691134058061E-004  2.075473074661078E-004  2.101579312154594E-004  2.128013925691329E-004
2.154781045733433E-004  2.181884854697869E-004  2.209329587609931E-004  2.237119532764971E-004
2.265259032398462E-004  2.293752483364470E-004  2.322604337822680E-004  2.351819103934051E-004
2.381401346565223E-004  2.411355688001795E-004  2.441686808670558E-004  2.472399447870827E-004
2.503498404514962E-004  2.534988537878208E-004  2.566874768357973E-004  2.599162078242640E-004
2.631855512490071E-004  2.664960179515879E-004  2.698481251991639E-004  2.732423967653126E-004
2.766793630118719E-004  2.801595609718103E-004  2.836835344331397E-004  2.872518340238828E-004
2.908650172981105E-004  2.945236488230606E-004  2.982283002673523E-004  3.019795504903110E-004
3.057779856324158E-004  3.096241992068861E-004  3.135187921924174E-004  3.174623731270881E-004
3.214555582034420E-004  3.254989713647715E-004  3.295932444026097E-004  3.337390170554483E-004
3.379369371086992E-004  3.421876604959115E-004  3.464918514012622E-004  3.508501823633377E-004
3.552633343802177E-004  3.597319970158835E-004  3.642568685079634E-004  3.688386558768340E-004
3.734780750360936E-004  3.781758509044243E-004  3.829327175188639E-004  3.877494181494984E-004
3.926267054156009E-004  3.975653414032301E-004  4.025660977843062E-004  4.076297559371886E-004
4.127571070687652E-004  4.179489523380819E-004  4.232061029815255E-004  4.285293804395792E-004
4.339196164851767E-004  4.393776533536661E-004  4.449043438744128E-004  4.505005516040549E-004
4.561671509614354E-004  4.619050273642331E-004  4.677150773673096E-004  4.735982088027982E-004
4.795553409219556E-004  4.855874045387947E-004  4.916953421755285E-004  4.978801082098390E-004
5.041426690240022E-004  5.104840031558868E-004  5.169051014518520E-004  5.234069672215709E-004
5.299906163947979E-004  5.366570776801107E-004  5.434073927256485E-004  5.502426162818703E-004
5.571638163663639E-004  5.641720744307232E-004  5.712684855295291E-004  5.784541584914540E-004
5.857302160925169E-004  5.930977952315221E-004  6.005580471076990E-004  6.081121374005811E-004
6.157612464521460E-004  6.235065694512451E-004  6.313493166203545E-004  6.392907134046764E-004
6.473320006636145E-004  6.554744348646638E-004  6.637192882797337E-004  6.720678491839447E-004
6.805214220569234E-004  6.890813277866298E-004  6.977489038757500E-004  7.065255046506821E-004
7.154125014731526E-004  7.244112829544969E-004  7.335232551726286E-004  7.427498418917459E-004
7.520924847847953E-004  7.615526436587359E-004  7.711317966826396E-004  7.808314406186541E-004
7.906530910558798E-004  8.005982826471791E-004  8.106685693489716E-004  8.208655246640432E-004
8.311907418874070E-004  8.416458343552619E-004  8.522324356970765E-004  8.629522000908487E-004
8.738068025215753E-004  8.847979390429695E-004  8.959273270424747E-004  9.071967055096087E-004
9.186078353076843E-004  9.301624994489492E-004  9.418625033731829E-004  9.537096752298032E-004
9.657058661635157E-004  9.778529506035596E-004  9.901528265565929E-004  1.002607415903257E-003
1.015218664698477E-003  1.027988543475534E-003  1.040919047553968E-003  1.054012197351349E-003
1.067270038698971E-003  1.080694643161517E-003  1.094288108360747E-003  1.108052558303255E-003
1.121990143712349E-003  1.136103042364104E-003  1.150393459427648E-003  1.164863627809722E-003
1.179515808503573E-003  1.194352290942248E-003  1.209375393356311E-003  1.224587463136079E-003
1.239990877198404E-003  1.255588042358073E-003  1.271381395703874E-003  1.287373404979399E-003
1.303566568968634E-003  1.319963417886398E-003  1.336566513773691E-003  1.353378450898028E-003
1.370401856158788E-003  1.387639389497677E-003  1.405093744314349E-003  1.422767647887255E-003
1.440663861799788E-003  1.458785182371779E-003  1.477134441096438E-003  1.495714505082772E-003
1.514528277503579E-003  1.533578698049079E-003  1.552868743386238E-003  1.572401427623888E-003
1.592179802783679E-003  1.612206959276970E-003  1.632486026387709E-003  1.653020172761390E-003
1.673812606900160E-003  1.694866577664156E-003  1.716185374779146E-003  1.737772329350551E-003
1.759630814383942E-003  1.781764245312078E-003  1.804176080528571E-003  1.826869821928271E-003
1.849849015454443E-003  1.873117251652827E-003  1.896678166232668E-003  1.920535440634805E-003
1.944692802606901E-003  1.969154026785912E-003  1.993922935287884E-003  2.019003398305162E-003
2.044399334711120E-003  2.070114712672489E-003  2.096153550269394E-003  2.122519916123186E-003
2.149217930032173E-003  2.176251763615345E-003  2.203625640964201E-003  2.231343839302769E-003
2.259410689655931E-003  2.287830577526160E-003  2.316607943578754E-003  2.345747284335709E-003
2.375253152878300E-003  2.405130159558518E-003  2.435382972719443E-003  2.466016319424681E-003
2.497034986196978E-003  2.528443819766125E-003  2.560247727826270E-003  2.592451679802752E-003
2.625060707628587E-003  2.658079906530717E-003  2.691514435826147E-003  2.725369519728104E-003
2.759650448162326E-003  2.794362577593626E-003  2.829511331862850E-003  2.865102203034362E-003
2.901140752254195E-003  2.937632610618984E-003  2.974583480055841E-003  3.011999134213296E-003
3.049885419363431E-003  3.088248255315380E-003  3.127093636340313E-003  3.166427632108046E-003
3.206256388635443E-003  3.246586129246744E-003  3.287423155545969E-003  3.328773848401564E-003
3.370644668943414E-003  3.413042159572417E-003  3.455972944982740E-003  3.499443733196949E-003
3.543461316614143E-003  3.588032573071286E-003  3.633164466917882E-003  3.678864050104163E-003
3.725138463282980E-003  3.771994936925538E-003  3.819440792451174E-003  3.867483443371344E-003
3.916130396447996E-003  3.965389252866522E-003  4.015267709423456E-003  4.065773559729113E-003
4.116914695425359E-003  4.168699107418693E-003  4.221134887128844E-003  4.274230227753075E-003
4.327993425546382E-003  4.382432881117801E-003  4.437557100743024E-003  4.493374697693518E-003
4.549894393582369E-003  4.607125019727048E-003  4.665075518529329E-003  4.723754944872550E-003
4.783172467536461E-003  4.843337370629866E-003  4.904259055041277E-003  4.965947039907831E-003
5.028410964102668E-003  5.091660587741028E-003  5.155705793705287E-003  5.220556589189177E-003
5.286223107261433E-003  5.352715608449102E-003  5.420044482340776E-003  5.488220249209983E-003
5.557253561658999E-003  5.627155206283344E-003  5.697936105357207E-003  5.769607318540074E-003
5.842180044604820E-003  5.915665623187543E-003  5.990075536559405E-003  6.065421411420756E-003
6.141715020717837E-003  6.218968285482324E-003  6.297193276694005E-003  6.376402217166910E-003
6.456607483459137E-003  6.537821607806724E-003  6.620057280081834E-003  6.703327349775567E-003
6.787644828005728E-003  6.873022889549836E-003  6.959474874903709E-003  7.047014292365949E-003
7.135654820148631E-003  7.225410308514565E-003  7.316294781941416E-003  7.408322441313062E-003
7.501507666138513E-003  7.595865016798733E-003  7.691409236821736E-003  7.788155255186285E-003
7.886118188654583E-003  7.985313344134290E-003  8.085756221070264E-003  8.187462513866380E-003
8.290448114337807E-003  8.394729114194151E-003  8.500321807553793E-003  8.607242693489907E-003
8.715508478608450E-003  8.825136079658612E-003  8.936142626176103E-003  9.048545463159656E-003
9.162362153781238E-003  9.277610482130317E-003  9.394308455992675E-003  9.512474309664150E-003
9.632126506799791E-003  9.753283743298832E-003  9.875964950225974E-003  1.000018929676939E-002
1.012597619323598E-002  1.025334529408421E-002  1.038231650099524E-002  1.051290996598254E-002
1.064514609454071E-002  1.077904554883386E-002  1.091462925092416E-002  1.105191838604090E-002
1.119093440589076E-002  1.133169903200967E-002  1.147423425915686E-002  1.161856235875155E-002
1.176470588235295E-002  1.191268766518394E-002  1.206253082969917E-002  1.221425878919795E-002
1.236789525148264E-002  1.252346422256306E-002  1.268099001040743E-002  1.284049722874061E-002
1.300201080088998E-002  1.316555596367978E-002  1.333115827137443E-002  1.349884359967144E-002
1.366863814974451E-002  1.384056845233754E-002  1.401466137191010E-002  1.419094411083507E-002
1.436944421364906E-002  1.455018957135630E-002  1.473320842578664E-002  1.491852937400847E-002
1.510618137279696E-002  1.529619374315872E-002  1.548859617491320E-002  1.568341873133180E-002
1.588069185383534E-002  1.608044636675055E-002  1.628271348212649E-002  1.648752480461146E-002
1.669491233639127E-002  1.690490848218970E-002  1.711754605433179E-002  1.733285827787078E-002
1.755087879577966E-002  1.777164167420792E-002  1.799518140780446E-002  1.822153292510746E-002
1.845073159400199E-002  1.868281322724640E-002  1.891781408806804E-002  1.915577089582954E-002
1.939672083176622E-002  1.964070154479581E-002  1.988775115740108E-002  2.013790827158665E-002
2.039121197491054E-002  2.064770184659176E-002  2.090741796369458E-002  2.117040090739070E-002
2.143669176930011E-002  2.170633215791177E-002  2.197936420508498E-002  2.225583057263259E-002
2.253577445898702E-002  2.281923960595006E-002  2.310627030552762E-002  2.339691140685050E-002
2.369120832318209E-002  2.398920703901431E-002  2.429095411725279E-002  2.459649670649243E-002
2.490588254838442E-002  2.521915998509600E-002  2.553637796686404E-002  2.585758605964356E-002
2.618283445285257E-002  2.651217396721423E-002  2.684565606269770E-002  2.718333284655888E-002
2.752525708148226E-002  2.787148219382518E-002  2.822206228196587E-002  2.857705212475634E-002
2.893650719008177E-002  2.930048364352743E-002  2.966903835715470E-002  3.004222891838739E-002
3.042011363900997E-002  3.080275156427885E-002  3.119020248214833E-002  3.158252693261260E-002
3.197978621716525E-002  3.238204240837771E-002  3.278935835959825E-002  3.320179771477296E-002
3.361942491839018E-002  3.404230522555014E-002  3.447050471216121E-002  3.490409028526434E-002
3.534312969348747E-002  3.578769153763135E-002  3.623784528138862E-002  3.669366126219757E-002
3.715521070223258E-002  3.762256571953267E-002  3.809579933927015E-002  3.857498550516088E-002
3.906019909101822E-002  3.955151591245212E-002  4.004901273871554E-002  4.055276730469972E-002
4.106285832308050E-002  4.157936549661731E-002  4.210236953060683E-002  4.263195214549346E-002
4.316819608963819E-002  4.371118515224830E-002  4.426100417646955E-002  4.481773907264309E-002
4.538147683172913E-002  4.595230553889946E-002  4.653031438730093E-002  4.711559369199207E-002
4.770823490405501E-002  4.830833062488488E-002  4.891597462065894E-002  4.953126183698780E-002
5.015428841375082E-002  5.078515170011819E-002  5.142395026976188E-002  5.207078393625807E-002
5.272575376868315E-002  5.338896210740594E-002  5.406051258007872E-002  5.474051011782909E-002
5.542906097165581E-002  5.612627272903065E-002  5.683225433070919E-002  5.754711608775302E-002
5.827096969876609E-002  5.900392826734779E-002  5.974610631976569E-002  6.049761982285044E-002
6.125858620211590E-002  6.202912436010699E-002  6.280935469497857E-002  6.359939911930787E-002
6.439938107914354E-002  6.520942557329443E-002  6.602965917286070E-002  6.686021004101113E-002
6.770120795300863E-002  6.855278431648795E-002  6.941507219198846E-002  7.028820631374502E-002
7.117232311074058E-002  7.206756072802339E-002  7.297405904829256E-002  7.389195971375491E-002
7.482140614825689E-002  7.576254357969485E-002  7.671551906270724E-002  7.768048150165212E-002
7.865758167387379E-002  7.964697225326212E-002  8.064880783410802E-002  8.166324495525927E-002
8.269044212457996E-002  8.373055984371763E-002  8.478376063318202E-002  8.585020905773924E-002
8.693007175212533E-002  8.802351744708334E-002  8.913071699572764E-002  9.025184340024039E-002
9.138707183890327E-002  9.253657969346936E-002  9.370054657687972E-002  9.487915436132795E-002
9.607258720667830E-002  9.728103158924087E-002  9.850467633090904E-002  9.974371262866327E-002
1.009983340844458E-001  1.022687367354119E-001  1.035551190845602E-001  1.048576821317499E-001
1.061766294051074E-001  1.075121669928274E-001  1.088645035753753E-001  1.102338504580934E-001
1.116204216042180E-001  1.130244336683119E-001  1.144461060301163E-001  1.158856608288305E-001
1.173433229978203E-001  1.188193202997654E-001  1.203138833622471E-001  1.218272457137846E-001
1.233596438203245E-001  1.249113171221884E-001  1.264825080714866E-001  1.280734621700017E-001
1.296844280075483E-001  1.313156573008162E-001  1.329674049327010E-001  1.346399289921309E-001
1.363334908143929E-001  1.380483550219672E-001  1.397847895658754E-001  1.415430657675475E-001
1.433234583612174E-001  1.451262455368501E-001  1.469517089836096E-001  1.488001339338733E-001
1.506718092078005E-001  1.525670272584605E-001  1.544860842175297E-001  1.564292799415622E-001
1.583969180588435E-001  1.603893060168325E-001  1.624067551302012E-001  1.644495806294781E-001
1.665181017103036E-001  1.686126415833051E-001  1.707335275245991E-001  1.728810909269288E-001
1.750556673514452E-001  1.772575965801387E-001  1.794872226689314E-001  1.817448940014356E-001
1.840309633433903E-001  1.863457878977815E-001  1.886897293606550E-001  1.910631539776335E-001
1.934664326011419E-001  1.958999407483547E-001  1.983640586598711E-001  2.008591713591278E-001
2.033856687125606E-001  2.059439454905211E-001  2.085344014289606E-001  2.111574412918900E-001
2.138134749346243E-001  2.165029173678242E-001  2.192261888223414E-001  2.219837148148811E-001
2.247759262144901E-001  2.276032593098802E-001  2.304661558776000E-001  2.333650632510627E-001
2.363004343904432E-001  2.392727279534544E-001  2.422824083670122E-001  2.453299458998049E-001
2.484158167357721E-001  2.515405030485101E-001  2.547044930766126E-001  2.579082811999585E-001
2.611523680169606E-001  2.644372604227838E-001  2.677634716885499E-001  2.711315215415364E-001
2.745419362463850E-001  2.779952486873321E-001  2.814919984514724E-001  2.850327319130705E-001
2.886180023189337E-001  2.922483698748570E-001  2.959244018331574E-001  2.996466725813070E-001
3.034157637316832E-001  3.072322642124468E-001  3.110967703595624E-001  3.150098860099780E-001
3.189722225959754E-001  3.229843992407072E-001  3.270470428549374E-001  3.311607882349960E-001
3.353262781619681E-001  3.395441635021298E-001  3.438151033086465E-001  3.481397649245526E-001
3.525188240870238E-001  3.569529650329639E-001  3.614428806059169E-001  3.659892723643256E-001
3.705928506911524E-001  3.752543349048766E-001  3.799744533718905E-001  3.847539436203079E-001
3.895935524552038E-001  3.944940360753053E-001  3.994561601911478E-001  4.044807001447200E-001
4.095684410306124E-001  4.147201778186890E-001  4.199367154783046E-001  4.252188691040817E-001
4.305674640432707E-001  4.359833360247129E-001  4.414673312894237E-001  4.470203067228209E-001
4.526431299886136E-001  4.583366796643763E-001  4.641018453788300E-001  4.699395279508465E-001
4.758506395302048E-001  4.818361037401156E-001  4.878968558215385E-001  4.940338427793178E-001
5.002480235301506E-001  5.065403690524228E-001  5.129118625379239E-001  5.193634995454736E-001
5.258962881564807E-001  5.325112491324563E-001  5.392094160745117E-001  5.459918355848588E-001
5.528595674303448E-001  5.598136847080436E-001  5.668552740129275E-001  5.739854356076523E-001
5.812052835944731E-001  5.885159460893267E-001  5.959185653981020E-001  6.034142981951262E-001
6.110043157038997E-001  6.186898038800996E-001  6.264719635968899E-001  6.343520108325597E-001
6.423311768605210E-001  6.504107084416992E-001  6.585918680193430E-001  6.668759339162802E-001
6.752642005346616E-001  6.837579785582122E-001  6.923585951570284E-001  7.010673941949528E-001
7.098857364395530E-001  7.188149997747456E-001  7.278565794160934E-001  7.370118881288101E-001
7.462823564485099E-001  7.556694329047282E-001  7.651745842472589E-001  7.747992956753383E-001
7.845450710697084E-001  7.944134332276017E-001  8.044059241006841E-001  8.145241050359840E-001
8.247695570198578E-001  8.351438809250228E-001  8.456486977606950E-001  8.562856489258786E-001
8.670563964658334E-001  8.779626233317762E-001  8.890060336438433E-001  9.001883529573634E-001
9.115113285324812E-001  9.229767296071665E-001  9.345863476736636E-001  9.463419967584155E-001
9.582455137055076E-001  9.702987584636827E-001  9.825036143769562E-001  9.948619884788950E-001
1.007375811790596E+000  1.020047039622411E+000  1.032877651879469E+000  1.045869653371039E+000
1.059025074123787E+000  1.072345969698970E+000  1.085834421513622E+000  1.099492537165784E+000
1.113322450763814E+000  1.127326323259846E+000  1.141506342787452E+000  1.155864725003530E+000
1.170403713434516E+000  1.185125579826931E+000  1.200032624502350E+000  1.215127176716833E+000
1.230411595024873E+000  1.245888267647929E+000  1.261559612847583E+000  1.277428079303408E+000
1.293496146495572E+000  1.309766325092263E+000  1.326241157341991E+000  1.342923217470812E+000
1.359815112084562E+000  1.376919480576140E+000  1.394238995537922E+000  1.411776363179358E+000
1.429534323749823E+000  1.447515651966784E+000  1.465723157449358E+000  1.484159685157320E+000
1.502828115835634E+000  1.521731366464576E+000  1.540872390715514E+000  1.560254179412431E+000
1.579879760999241E+000  1.599752202013000E+000  1.619874607563044E+000  1.640250121816180E+000
1.660881928487965E+000  1.681773251340165E+000  1.702927354684482E+000  1.724347543892602E+000
1.746037165912667E+000  1.767999609792247E+000  1.790238307207878E+000  1.812756733001280E+000
1.835558405722295E+000  1.858646888178678E+000  1.882025787992784E+000  1.905698758165275E+000
1.929669497645904E+000  1.953941751911484E+000  1.978519313551125E+000  2.003406022858837E+000
2.028605768433581E+000  2.054122487786874E+000  2.079960167958029E+000  2.106122846137139E+000
2.132614610295898E+000  2.159439599826353E+000  2.186602006187696E+000  2.214106073561182E+000
2.241956099513296E+000  2.270156435667254E+000  2.298711488382952E+000  2.327625719445477E+000
2.356903646762257E+000  2.386549845069001E+000  2.416568946644510E+000  2.446965642034478E+000
2.477744680784407E+000  2.508910872181718E+000  2.540469086007227E+000  2.572424253296049E+000
2.604781367108084E+000  2.637545483308201E+000  2.670721721356213E+000  2.704315265106812E+000
2.738331363619556E+000  2.772775331979043E+000  2.807652552125408E+000  2.842968473695256E+000
2.878728614873184E+000  2.914938563254004E+000  2.951603976715819E+000  2.988730584304083E+000
3.026324187126765E+000  3.064390659260789E+000  3.102935948669873E+000  3.141966078133907E+000
3.181487146190033E+000  3.221505328085536E+000  3.262026876742755E+000  3.303058123736112E+000
3.344605480281423E+000  3.386675438237683E+000  3.429274571121414E+000  3.472409535133794E+000
3.516087070200713E+000  3.560314001025881E+000  3.605097238157227E+000  3.650443779066664E+000
3.696360709243465E+000  3.742855203301389E+000  3.789934526099724E+000  3.837606033878448E+000
3.885877175407634E+000  3.934755493151357E+000  3.984248624446207E+000  4.034364302694640E+000
4.085110358573350E+000  4.136494721256810E+000  4.188525419656228E+000  4.241210583674091E+000
4.294558445474458E+000  4.348577340769281E+000  4.403275710120849E+000  4.458662100260658E+000
4.514745165424849E+000  4.571533668706456E+000  4.629036483424660E+000  4.687262594511246E+000
4.746221099914536E+000  4.805921212020947E+000  4.866372259094456E+000  4.927583686734164E+000
4.989565059350172E+000  5.052326061658051E+000  5.115876500192102E+000  5.180226304837634E+000
5.245385530382555E+000  5.311364358088418E+000  5.378173097281286E+000  5.445822186962583E+000
5.514322197440200E+000  5.583683831980147E+000  5.653917928478934E+000  5.725035461157031E+000
5.797047542273609E+000  5.869965423862848E+000  5.943800499492106E+000  6.018564306042167E+000
6.094268525509911E+000  6.170924986833652E+000  6.248545667741425E+000  6.327142696622552E+000
6.406728354422699E+000  6.487315076562814E+000  6.568915454882188E+000  6.651542239605943E+000
6.735208341337311E+000  6.819926833074899E+000  6.905710952255405E+000  6.992574102821979E+000
7.080529857318615E+000  7.169591959010914E+000  7.259774324033454E+000  7.351091043564253E+000
7.443556386026518E+000  7.537184799318128E+000  7.631990913069158E+000  7.727989540927762E+000
7.825195682874852E+000  7.923624527567876E+000  8.023291454714064E+000  8.124212037473574E+000
8.226402044892774E+000  8.329877444368236E+000  8.434654404141646E+000  8.540749295826133E+000
8.648178696964392E+000  8.756959393618907E+000  8.867108382994846E+000  8.978642876095902E+000
9.091580300413529E+000  9.205938302650068E+000  9.321734751476024E+000  9.438987740322116E+000
9.557715590206399E+000  9.677936852596970E+000  9.799670312310681E+000  9.922934990448276E+000
1.004775014736650E+001  1.017413528568755E+001  1.030211015334642E+001  1.043169474667657E+001
1.056290931353433E+001  1.069577435646274E+001  1.083031063589507E+001  1.096653917339869E+001
1.110448125495975E+001  1.124415843430915E+001  1.138559253629032E+001  1.152880566026946E+001
1.167382018358854E+001  1.182065876506189E+001  1.196934434851660E+001  1.211990016637758E+001
1.227234974329769E+001  1.242671689983347E+001  1.258302575616721E+001  1.274130073587572E+001
1.290156656974658E+001  1.306384829964241E+001  1.322817128241365E+001  1.339456119386071E+001
1.356304403274575E+001  1.373364612485513E+001  1.390639412711285E+001  1.408131503174569E+001
1.425843617050091E+001  1.443778521891679E+001  1.461939020064702E+001  1.480327949183949E+001
1.498948182557005E+001  1.517802629633220E+001  1.536894236458309E+001  1.556225986134681E+001
1.575800899287552E+001  1.595622034536927E+001  1.615692488975519E+001  1.636015398652665E+001
1.656593939064349E+001  1.677431325649379E+001  1.698530814291800E+001  1.719895701829645E+001
1.741529326570054E+001  1.763435068810910E+001  1.785616351369003E+001  1.808076640114862E+001
1.830819444514299E+001  1.853848318176774E+001  1.877166859410648E+001  1.900778711785430E+001
1.924687564701091E+001  1.948897153964545E+001  1.973411262373369E+001  1.998233720306875E+001
2.023368406324617E+001  2.048819247772422E+001  2.074590221396045E+001  2.100685353962549E+001
2.127108722889488E+001  2.153864456882014E+001  2.180956736578000E+001  2.208389795201265E+001
2.236167919223036E+001  2.264295449031705E+001  2.292776779611029E+001  2.321616361226859E+001
2.350818700122493E+001  2.380388359222801E+001  2.410329958847176E+001  2.440648177431475E+001
2.471347752259035E+001  2.502433480200879E+001  2.533910218465247E+001  2.565782885356531E+001
2.598056461043777E+001  2.630735988338849E+001  2.663826573484371E+001  2.697333386951598E+001
2.731261664248304E+001  2.765616706736844E+001  2.800403882462503E+001  2.835628626992260E+001
2.871296444264118E+001  2.907412907447091E+001  2.943983659812030E+001  2.981014415613395E+001