<UPF version="2.0.1">
<PP_INFO>
Generated in analytical, separable form
Author: Goedecker/Hartwigsen/Hutter/Teter
Generation date: Phys.Rev.B58, 3641 (1998); B54, 1703 (1996)
Pseudopotential type: NC
Element: Bi
Functional: SLA-PW-PBX-PBC

Suggested minimum cutoff for wavefunctions:   0. Ry
Suggested minimum cutoff for charge density:   0. Ry
The Pseudo was generated with a Non-Relativistic Calculation
Local Potential: unknown format, L component and cutoff radius: -3   0.0000

Valence configuration:
nl pn  l   occ       Rcut    Rcut US       E pseu

Generation configuration: not available.
Converted from CPMD format using cpmd2upf v.5.0.1 - PG 10Jul2012
Contains atomic orbitals generated by ld1.x - use with care
</PP_INFO>
<!--                               -->
<!-- END OF HUMAN READABLE SECTION -->
<!--                               -->
<PP_HEADER generated="Generated in analytical, separable form"
author="Goedecker/Hartwigsen/Hutter/Teter"
date="Phys.Rev.B58, 3641 (1998); B54, 1703 (1996)"
comment="Contains atomic orbitals generated by ld1.x - use with care"
element="Bi"
pseudo_type="NC"
relativistic="no"
is_ultrasoft="F"
is_paw="F"
is_coulomb="F"
has_so="F"
has_wfc="F"
has_gipaw="F"
paw_as_gipaw="F"
core_correction="F"
functional="SLA-PW-PBX-PBC"
z_valence="5.000000000000000E+000"
total_psenergy="0.000000000000000E+000"
wfc_cutoff="0.000000000000000E+000"
rho_cutoff="0.000000000000000E+000"
l_max="2"
l_max_rho="0"
l_local="-3"
mesh_size="1283"
number_of_wfc=" 3"
number_of_proj="6"/>
<PP_MESH dx="1.250000000000000E-002" mesh="1283" xmin="-7.000000000000000E+000" rmax="1.000989695641147E+002"
zmesh="8.300000000000000E+001">
<PP_R type="real" size="1283" columns="4">
1.098652970547610E-005  1.112472323697617E-005  1.126465502911545E-005  1.140634694652113E-005
1.154982112884361E-005  1.169509999421577E-005  1.184220624275589E-005  1.199116286011459E-005
1.214199312106639E-005  1.229472059314644E-005  1.244936914033298E-005  1.260596292677613E-005
1.276452642057362E-005  1.292508439759394E-005  1.308766194534769E-005  1.325228446690745E-005
1.341897768487715E-005  1.358776764541123E-005  1.375868072228443E-005  1.393174362101274E-005
1.410698338302620E-005  1.428442738989413E-005  1.446410336760362E-005  1.464603939089174E-005
1.483026388763230E-005  1.501680564327771E-005  1.520569380535680E-005  1.539695788802921E-005
1.559062777669696E-005  1.578673373267422E-005  1.598530639791556E-005  1.618637679980394E-005
1.638997635599872E-005  1.659613687934478E-005  1.680489058284336E-005  1.701627008468532E-005
1.723030841334789E-005  1.744703901275537E-005  1.766649574750486E-005  1.788871290815767E-005
1.811372521659726E-005  1.834156783145460E-005  1.857227635360181E-005  1.880588683171484E-005
1.904243576790623E-005  1.928196012342849E-005  1.952449732444948E-005  1.977008526790031E-005
2.001876232739679E-005  2.027056735923544E-005  2.052553970846475E-005  2.078371921503304E-005
2.104514622001349E-005  2.130986157190748E-005  2.157790663302735E-005  2.184932328595922E-005
2.212415394010731E-005  2.240244153832049E-005  2.268422956360214E-005  2.296956204590454E-005
2.325848356900855E-005  2.355103927748996E-005  2.384727488377346E-005  2.414723667527517E-005
2.445097152163535E-005  2.475852688204167E-005  2.506995081264493E-005  2.538529197406788E-005
2.570459963900853E-005  2.602792369993921E-005  2.635531467690223E-005  2.668682372540382E-005
2.702250264440727E-005  2.736240388442659E-005  2.770658055572212E-005  2.805508643659896E-005
2.840797598181004E-005  2.876530433106474E-005  2.912712731764462E-005  2.949350147712751E-005
2.986448405622119E-005  3.024013302170842E-005  3.062050706950432E-005  3.100566563382771E-005
3.139566889648793E-005  3.179057779628821E-005  3.219045403854760E-005  3.259536010474249E-005
3.300535926226950E-005  3.342051557433119E-005  3.384089390994594E-005  3.426655995408395E-005
3.469758021793064E-005  3.513402204927913E-005  3.557595364305357E-005  3.602344405196458E-005
3.647656319729898E-005  3.693538187984510E-005  3.739997179095553E-005  3.787040552374916E-005
3.834675658445382E-005  3.882909940389188E-005  3.931750934911022E-005  3.981206273515641E-005
4.031283683700328E-005  4.081990990162303E-005  4.133336116021367E-005  4.185327084057896E-005
4.237972017966420E-005  4.291279143624975E-005  4.345256790380398E-005  4.399913392349812E-005
4.455257489738473E-005  4.511297730174193E-005  4.568042870058563E-005  4.625501775935137E-005
4.683683425874856E-005  4.742596910878895E-005  4.802251436299145E-005  4.862656323276576E-005
4.923821010197671E-005  4.985755054169201E-005  5.048468132511541E-005  5.111970044270772E-005
5.176270711749807E-005  5.241380182058758E-005  5.307308628684826E-005  5.374066353081930E-005
5.441663786280320E-005  5.510111490516474E-005  5.579420160883428E-005  5.649600627001941E-005
5.720663854712623E-005  5.792620947789385E-005  5.865483149674414E-005  5.939261845235002E-005
6.013968562542430E-005  6.089614974673270E-005  6.166212901533320E-005  6.243774311704488E-005
6.322311324314921E-005  6.401836210932622E-005  6.482361397482916E-005  6.563899466190035E-005
6.646463157543098E-005  6.730065372286867E-005  6.814719173437479E-005  6.900437788323597E-005
6.987234610653189E-005  7.075123202606328E-005  7.164117296954330E-005  7.254230799205493E-005
7.345477789777878E-005  7.437872526199407E-005  7.531429445335617E-005  7.626163165645478E-005
7.722088489465521E-005  7.819220405322755E-005  7.917574090276649E-005  8.017164912290571E-005
8.118008432633093E-005  8.220120408309430E-005  8.323516794523533E-005  8.428213747171105E-005
8.534227625363998E-005  8.641574993986385E-005  8.750272626283002E-005  8.860337506480043E-005
8.971786832438969E-005  9.084638018343698E-005  9.198908697421641E-005  9.314616724698881E-005
9.431780179790089E-005  9.550417369723498E-005  9.670546831801390E-005  9.792187336496639E-005
9.915357890385578E-005  1.004007773911784E-004  1.016636637042354E-004  1.029424351715824E-004
1.042372916038631E-004  1.055484353250293E-004  1.068760712039549E-004  1.082204066864473E-004
1.095816518276604E-004  1.109600193249174E-004  1.123557245509437E-004  1.137689855875206E-004
1.152000232595604E-004  1.166490611696107E-004  1.181163257327931E-004  1.196020462121809E-004
1.211064547546215E-004  1.226297864270106E-004  1.241722792530210E-004  1.257341742502952E-004
1.273157154681043E-004  1.289171500254811E-004  1.305387281498333E-004  1.321807032160419E-004
1.338433317860519E-004  1.355268736489598E-004  1.372315918616070E-004  1.389577527896823E-004
1.407056261493427E-004  1.424754850493568E-004  1.442676060337786E-004  1.460822691251578E-004
1.479197578682946E-004  1.497803593745432E-004  1.516643643666747E-004  1.535720672243020E-004
1.555037660298780E-004  1.574597626152710E-004  1.594403626089269E-004  1.614458754836244E-004
1.634766146048305E-004  1.655328972796644E-004  1.676150448064775E-004  1.697233825250569E-004
1.718582398674609E-004  1.740199504094925E-004  1.762088519228220E-004  1.784252864277640E-004
1.806696002467193E-004  1.829421440582885E-004  1.852432729520655E-004  1.875733464841216E-004
1.899327287331867E-004  1.923217883575374E-004  1.947408986526009E-004  1.971904376092823E-004
1.996707879730272E-004  2.021823373036262E-004  2.047254780357719E-004  2.073006075403781E-004
2.099081281866689E-004  2.125484474050502E-004  2.152219777507717E-004  2.179291369683891E-004
2.206703480570383E-004  2.234460393365287E-004  2.262566445142700E-004  2.291026027530392E-004
2.319843587396016E-004  2.349023627541927E-004  2.378570707408769E-004  2.408489443787883E-004
2.438784511542698E-004  2.469460644339188E-004  2.500522635385511E-004  2.531975338180967E-004
2.563823667274358E-004  2.596072599031900E-004  2.628727172414792E-004  2.661792489766559E-004
2.695273717610313E-004  2.729176087456021E-004  2.763504896617943E-004  2.798265509042359E-004
2.833463356145676E-004  2.869103937663118E-004  2.905192822508057E-004  2.941735649642173E-004
2.978738128956554E-004  3.016206042163873E-004  3.054145243701800E-004  3.092561661647763E-004
3.131461298645223E-004  3.170850232841604E-004  3.210734618838010E-004  3.251120688650902E-004
3.292014752685852E-004  3.333423200723563E-004  3.375352502918292E-004  3.417809210808808E-004
3.460799958342100E-004  3.504331462909937E-004  3.548410526398469E-004  3.593044036251049E-004
3.638238966544398E-004  3.684002379078325E-004  3.730341424479144E-004  3.777263343316975E-004
3.824775467237103E-004  3.872885220105550E-004  3.921600119169088E-004  3.970927776229803E-004
4.020875898834468E-004  4.071452291478862E-004  4.122664856827233E-004  4.174521596947111E-004
4.227030614559643E-004  4.280200114305658E-004  4.334038404027671E-004  4.388553896067980E-004
4.443755108583134E-004  4.499650666874894E-004  4.556249304737962E-004  4.613559865824658E-004
4.671591305026748E-004  4.730352689874677E-004  4.789853201954376E-004  4.850102138341910E-004
4.911108913056172E-004  4.972883058529825E-004  5.035434227098786E-004  5.098772192510400E-004
5.162906851450625E-004  5.227848225090407E-004  5.293606460651496E-004  5.360191832991991E-004
5.427614746211786E-004  5.495885735278241E-004  5.565015467672304E-004  5.635014745055299E-004
5.705894504956739E-004  5.777665822483310E-004  5.850339912049394E-004  5.923928129129347E-004
5.998441972031801E-004  6.073893083696310E-004  6.150293253512580E-004  6.227654419162577E-004
6.305988668485833E-004  6.385308241368172E-004  6.465625531654233E-004  6.546953089084035E-004
6.629303621253883E-004  6.712689995601979E-004  6.797125241418961E-004  6.882622551883770E-004
6.969195286125119E-004  7.056856971308858E-004  7.145621304751657E-004  7.235502156061202E-004
7.326513569303370E-004  7.418669765196655E-004  7.511985143334148E-004  7.606474284433543E-004
7.702151952615373E-004  7.799033097709946E-004  7.897132857593297E-004  7.996466560552482E-004
8.097049727680697E-004  8.198898075302437E-004  8.302027517429227E-004  8.406454168246225E-004
8.512194344630072E-004  8.619264568698465E-004  8.727681570391746E-004  8.837462290087004E-004
8.948623881245048E-004  9.061183713090651E-004  9.175159373326549E-004  9.290568670881535E-004
9.407429638693153E-004  9.525760536525384E-004  9.645579853821752E-004  9.766906312594370E-004
9.889758870349256E-004  1.001415672304850E-003  1.014011930810969E-003  1.026766630744299E-003
1.039681765052657E-003  1.052759351752053E-003  1.066001434242016E-003  1.079410081624876E-003
1.092987389029066E-003  1.106735477936493E-003  1.120656496514019E-003  1.134752619949117E-003
1.149026050789755E-003  1.163479019288540E-003  1.178113783751206E-003  1.192932630889474E-003
1.207937876178358E-003  1.223131864217965E-003  1.238516969099836E-003  1.254095594777912E-003
1.269870175444149E-003  1.285843175908870E-003  1.302017091985895E-003  1.318394450882517E-003
1.334977811594385E-003  1.351769765305347E-003  1.368772935792335E-003  1.385989979835331E-003
1.403423587632494E-003  1.421076483220512E-003  1.438951424900237E-003  1.457051205667671E-003
1.475378653650385E-003  1.493936632549412E-003  1.512728042086714E-003  1.531755818458261E-003
1.551022934792822E-003  1.570532401616526E-003  1.590287267323256E-003  1.610290618650969E-003
1.630545581164009E-003  1.651055319741475E-003  1.671823039071750E-003  1.692851984153231E-003
1.714145440801369E-003  1.735706736162088E-003  1.757539239231656E-003  1.779646361383095E-003
1.802031556899218E-003  1.824698323512369E-003  1.847650202950946E-003  1.870890781492807E-003
1.894423690525634E-003  1.918252607114341E-003  1.942381254575624E-003  1.966813403059740E-003
1.991552870139597E-003  2.016603521407260E-003  2.041969271077953E-003  2.067654082601672E-003
2.093661969282472E-003  2.119996994905561E-003  2.146663274372271E-003  2.173664974343022E-003
2.201006313888370E-003  2.228691565148245E-003  2.256725053999483E-003  2.285111160731751E-003
2.313854320731978E-003  2.342959025177393E-003  2.372429821737278E-003  2.402271315283557E-003
2.432488168610307E-003  2.463085103162338E-003  2.494066899772924E-003  2.525438399410818E-003
2.557204503936665E-003  2.589370176868924E-003  2.621940444159433E-003  2.654920394978722E-003
2.688315182511203E-003  2.722130024760373E-003  2.756370205364126E-003  2.791041074420348E-003
2.826148049322864E-003  2.861696615607930E-003  2.897692327811352E-003  2.934140810336395E-003
2.971047758332609E-003  3.008418938585706E-003  3.046260190418633E-003  3.084577426603978E-003
3.123376634287851E-003  3.162663875925390E-003  3.202445290228032E-003  3.242727093122698E-003
3.283515578723045E-003  3.324817120312931E-003  3.366638171342258E-003  3.408985266435337E-003
3.451865022411930E-003  3.495284139321150E-003  3.539249401488349E-003  3.583767678575189E-003
3.628845926653038E-003  3.674491189289872E-003  3.720710598650843E-003  3.767511376612697E-003
3.814900835892209E-003  3.862886381188804E-003  3.911475510341563E-003  3.960675815500774E-003
4.010494984314212E-003  4.060940801128366E-003  4.112021148204744E-003  4.163744006951501E-003
4.216117459170548E-003  4.269149688320348E-003  4.322848980794599E-003  4.377223727217005E-003
4.432282423752319E-003  4.488033673433893E-003  4.544486187507917E-003  4.601648786794567E-003
4.659530403066281E-003  4.718140080443363E-003  4.777486976807145E-003  4.837580365230926E-003
4.898429635428907E-003  4.960044295223356E-003  5.022433972030223E-003  5.085608414363441E-003
5.149577493358154E-003  5.214351204313101E-003  5.279939668252402E-003  5.346353133506988E-003
5.413601977315925E-003  5.481696707447876E-003  5.550647963842963E-003  5.620466520275283E-003
5.691163286036324E-003  5.762749307639569E-003  5.835235770546537E-003  5.908634000914533E-003
5.982955467366382E-003  6.058211782782423E-003  6.134414706115053E-003  6.211576144226076E-003
6.289708153747182E-003  6.368822942963825E-003  6.448932873722776E-003  6.530050463363703E-003
6.612188386675019E-003  6.695359477874356E-003  6.779576732613927E-003  6.864853310011123E-003
6.951202534704661E-003  7.038637898936578E-003  7.127173064660424E-003  7.216821865675972E-003
7.307598309790767E-003  7.399516581008892E-003  7.492591041747233E-003  7.586836235079642E-003
7.682266887009320E-003  7.778897908769787E-003  7.876744399154789E-003  7.975821646877521E-003
8.076145132959513E-003  8.177730533149574E-003  8.280593720373161E-003  8.384750767212557E-003
8.490217948418238E-003  8.597011743451840E-003  8.705148839061113E-003  8.814646131887255E-003
8.925520731105039E-003  9.037789961096169E-003  9.151471364156250E-003  9.266582703235793E-003
9.383141964715725E-003  9.501167361217793E-003  9.620677334450330E-003  9.741690558089792E-003
9.864225940698581E-003  9.988302628679526E-003  1.011394000926756E-002  1.024115771355902E-002
1.036997561957901E-002  1.050041385538745E-002  1.063249280222405E-002  1.076623309769296E-002
1.090165563898747E-002  1.103878158615516E-002  1.117763236540426E-002  1.131822967245152E-002
1.146059547591222E-002  1.160475202073280E-002  1.175072183166666E-002  1.189852771679376E-002
1.204819277108434E-002  1.219974038000765E-002  1.235319422318589E-002  1.250857827809428E-002
1.266591682380752E-002  1.282523444479349E-002  1.298655603475460E-002  1.314990680051750E-002
1.331531226597166E-002  1.348279827605760E-002  1.365239100080514E-002  1.382411693942256E-002
1.399800292443715E-002  1.417407612588784E-002  1.435236405557058E-002  1.453289457133712E-002
1.471569588144784E-002  1.490079654897934E-002  1.508822549628753E-002  1.527801200952675E-002
1.547018574322581E-002  1.566477672492159E-002  1.586181535985087E-002  1.606133243570124E-002
1.626335912742173E-002  1.646792700209394E-002  1.667506802386448E-002  1.688481455893944E-002
1.709719938064166E-002  1.731225567453163E-002  1.753001704359279E-002  1.775051751348212E-002
1.797379153784664E-002  1.819987400370690E-002  1.842880023690819E-002  1.866060600764017E-002
1.889532753602614E-002  1.913300149778246E-002  1.937366502994920E-002  1.961735573669290E-002
1.986411169518228E-002  2.011397146153788E-002  2.036697407685653E-002  2.062315907331163E-002
2.088256648033007E-002  2.114523683084698E-002  2.141121116763903E-002  2.168053104973746E-002
2.195323855892180E-002  2.222937630629519E-002  2.250898743894245E-002  2.279211564667193E-002
2.307880516884213E-002  2.336910080127415E-002  2.366304790325118E-002  2.396069240460594E-002
2.426208081289732E-002  2.456726022067730E-002  2.487627831284924E-002  2.518918337411875E-002
2.550602429653826E-002  2.582685058714651E-002  2.615171237570414E-002  2.648066042252654E-002
2.681374612641529E-002  2.715102153268927E-002  2.749253934131692E-002  2.783835291515066E-002
2.818851628826496E-002  2.854308417439929E-002  2.890211197550722E-002  2.926565579041312E-002
2.963377242357772E-002  3.000651939397388E-002  3.038395494407409E-002  3.076613804895094E-002
3.115312842549214E-002  3.154498654173135E-002  3.194177362629648E-002  3.234355167797676E-002
3.275038347541020E-002  3.316233258689284E-002  3.357946338031147E-002  3.400184103320122E-002
3.442953154292970E-002  3.486260173700918E-002  3.530111928353859E-002  3.574515270177673E-002
3.619477137284861E-002  3.665004555058633E-002  3.711104637250642E-002  3.757784587092523E-002
3.805051698421408E-002  3.852913356819611E-002  3.901377040768629E-002  3.950450322817681E-002
4.000140870766927E-002  4.050456448865579E-002  4.101404919025085E-002  4.152994242047562E-002
4.205232478869690E-002  4.258127791822255E-002  4.311688445905518E-002  4.365922810080655E-002
4.420839358577405E-002  4.476446672218200E-002  4.532753439758930E-002  4.589768459246581E-002
4.647500639393947E-002  4.705959000971631E-002  4.765152678217565E-002  4.825090920264249E-002
4.885783092583947E-002  4.947238678452066E-002  5.009467280428927E-002  5.072478621860196E-002
5.136282548396168E-002  5.200889029530176E-002  5.266308160156338E-002  5.332550162146911E-002
5.399625385949478E-002  5.467544312204223E-002  5.536317553381555E-002  5.605955855440329E-002
5.676470099506920E-002  5.747871303575428E-002  5.820170624229254E-002  5.893379358384346E-002
5.967508945054358E-002  6.042570967138026E-002  6.118577153229016E-002  6.195539379448540E-002
6.273469671301025E-002  6.352380205553125E-002  6.432283312136360E-002  6.513191476073699E-002
6.595117339430363E-002  6.678073703289188E-002  6.762073529750795E-002  6.847129943958971E-002
6.933256236151486E-002  7.020465863736718E-002  7.108772453396410E-002  7.198189803214852E-002
7.288731884834879E-002  7.380412845640950E-002  7.473247010969720E-002  7.567248886348395E-002
7.662433159761248E-002  7.758814703944653E-002  7.856408578710983E-002  7.955230033301723E-002
8.055294508770208E-002  8.156617640394313E-002  8.259215260119496E-002  8.363103399032576E-002
8.468298289866621E-002  8.574816369537348E-002  8.682674281711411E-002  8.791888879407030E-002
8.902477227627292E-002  9.014456606026607E-002  9.127844511610661E-002  9.242658661470401E-002
9.358916995550334E-002  9.476637679451681E-002  9.595839107270815E-002  9.716539904473344E-002
9.838758930804403E-002  9.962515283235511E-002  1.008782829894852E-001  1.021471755835708E-001
1.034320288816614E-001  1.047330436446989E-001  1.060504231588869E-001  1.073843732674547E-001
1.087351024028208E-001  1.101028216191606E-001  1.114877446253843E-001  1.128900878185293E-001
1.143100703175726E-001  1.157479139976688E-001  1.172038435248179E-001  1.186780863909710E-001
1.201708729495750E-001  1.216824364515670E-001  1.232130130818193E-001  1.247628419960445E-001
1.263321653581636E-001  1.279212283781447E-001  1.295302793503176E-001  1.311595696921704E-001
1.328093539836338E-001  1.344798900068599E-001  1.361714387865011E-001  1.378842646304955E-001
1.396186351713662E-001  1.413748214080387E-001  1.431530977481856E-001  1.449537420511029E-001
1.467770356711262E-001  1.486232635015935E-001  1.504927140193592E-001  1.523856793298703E-001
1.543024552128077E-001  1.562433411683029E-001  1.582086404637352E-001  1.601986601811179E-001
1.622137112650807E-001  1.642541085714550E-001  1.663201709164711E-001  1.684122211265740E-001
1.705305860888651E-001  1.726755968021799E-001  1.748475884288063E-001  1.770469003468548E-001
1.792738762032873E-001  1.815288639676119E-001  1.838122159862550E-001  1.861242890376148E-001
1.884654443878094E-001  1.908360478471256E-001  1.932364698271768E-001  1.956670853987812E-001
1.981282743505670E-001  2.006204212483151E-001  2.031439154950487E-001  2.056991513918778E-001
2.082865281996102E-001  2.109064502011360E-001  2.135593267645982E-001  2.162455724073572E-001
2.189656068607599E-001  2.217198551357235E-001  2.245087475891448E-001  2.273327199911433E-001
2.301922135931525E-001  2.330876751968653E-001  2.360195572240482E-001  2.389883177872329E-001
2.419944207612973E-001  2.450383358559472E-001  2.481205386891089E-001  2.512415108612460E-001
2.544017400306099E-001  2.576017199894380E-001  2.608419507411093E-001  2.641229385782707E-001
2.674451961619476E-001  2.708092426016461E-001  2.742156035364667E-001  2.776648112172360E-001
2.811574045896714E-001  2.846939293785931E-001  2.882749381731946E-001  2.919009905133854E-001
2.955726529772212E-001  2.992904992694319E-001  3.030551103110647E-001  3.068670743302542E-001
3.107269869541334E-001  3.146354513019033E-001  3.185930780790699E-001  3.226004856728691E-001
3.266583002488905E-001  3.307671558489170E-001  3.349276944899962E-001  3.391405662647549E-001
3.434064294429794E-001  3.477259505744703E-001  3.520998045931922E-001  3.565286749227346E-001
3.610132535830967E-001  3.655542412988185E-001  3.701523476084691E-001  3.748082909755142E-001
3.795227989005777E-001  3.842966080351146E-001  3.891304642965144E-001  3.940251229846527E-001
3.989813488999076E-001  4.039999164626620E-001  4.090816098343080E-001  4.142272230397735E-001
4.194375600915909E-001  4.247134351155248E-001  4.300556724777819E-001  4.354651069138187E-001
4.409425836587712E-001  4.464889585795253E-001  4.521050983084460E-001  4.577918803787925E-001
4.635501933618332E-001  4.693809370056866E-001  4.752850223759103E-001  4.812633719978548E-001
4.873169200008122E-001  4.934466122639738E-001  4.996534065642262E-001  5.059382727258074E-001
5.123021927718410E-001  5.187461610777824E-001  5.252711845267896E-001  5.318782826670512E-001
5.385684878710947E-001  5.453428454970938E-001  5.522024140522108E-001  5.591482653579879E-001
5.661814847178229E-001  5.733031710865506E-001  5.805144372421547E-001  5.878164099596438E-001
5.952102301871111E-001  6.026970532240092E-001  6.102780489016707E-001  6.179544017660931E-001
6.257273112630297E-001  6.335979919254033E-001  6.415676735630801E-001  6.496376014550309E-001
6.578090365439071E-001  6.660832556330655E-001  6.744615515860741E-001  6.829452335287207E-001
6.915356270535691E-001  7.002340744270847E-001  7.090419347993664E-001  7.179605844165180E-001
7.269914168356868E-001  7.361358431428118E-001  7.453952921731077E-001  7.547712107343236E-001
7.642650638328113E-001  7.738783349024324E-001  7.836125260363496E-001  7.934691582217320E-001
8.034497715774122E-001  8.135559255945319E-001  8.237891993802187E-001  8.341511919043210E-001
8.446435222492520E-001  8.552678298629751E-001  8.660257748151695E-001  8.769190380566225E-001
8.879493216818777E-001  8.991183491951925E-001  9.104278657798396E-001  9.218796385707938E-001
9.334754569308542E-001  9.452171327302308E-001  9.571065006296555E-001  9.691454183670519E-001
9.813357670478089E-001  9.936794514387113E-001  1.006178400265558E+000  1.018834566514531E+000
1.031649927737357E+000  1.044626486360300E+000  1.057766269997046E+000  1.071071331765522E+000
1.084543750608697E+000  1.098185631619427E+000  1.111999106369372E+000  1.125986333242068E+000
1.140149497770170E+000  1.154490812976951E+000  1.169012519722090E+000  1.183716887051808E+000
1.198606212553420E+000  1.213682822714327E+000  1.228949073285539E+000  1.244407349649769E+000
1.260060067194147E+000  1.275909671687638E+000  1.291958639663187E+000  1.308209478804695E+000
1.324664728338839E+000  1.341326959431836E+000  1.358198775591196E+000  1.375282813072519E+000
1.392581741291419E+000  1.410098263240625E+000  1.427835115912329E+000  1.445795070725849E+000
1.463980933960662E+000  1.482395547194899E+000  1.501041787749343E+000  1.519922569137014E+000
1.539040841518421E+000  1.558399592162518E+000  1.578001845913478E+000  1.597850665663333E+000
1.617949152830549E+000  1.638300447844638E+000  1.658907730636852E+000  1.679774221137052E+000
1.700903179776831E+000  1.722297907998964E+000  1.743961748773265E+000  1.765898087118930E+000
1.788110350633455E+000  1.810602010028205E+000  1.833376579670718E+000  1.856437618133841E+000
1.879788728751748E+000  1.903433560182983E+000  1.927375806980562E+000  1.951619210169257E+000
1.976167557830143E+000  2.001024685692483E+000  2.026194477733080E+000  2.051680866783146E+000
2.077487835142823E+000  2.103619415203426E+000  2.130079690077499E+000  2.156872794236830E+000
2.184002914158450E+000  2.211474288978795E+000  2.239291211156074E+000  2.267458027140970E+000
2.295979138055785E+000  2.324859000382128E+000  2.354102126657240E+000  2.383713086179103E+000
2.413696505720384E+000  2.444057070251386E+000  2.474799523672089E+000  2.505928669553381E+000
2.537449371887645E+000  2.569366555848748E+000  2.601685208561618E+000  2.634410379881496E+000
2.667547183182978E+000  2.701100796159001E+000  2.735076461629857E+000  2.769479488362398E+000
2.804315251899546E+000  2.839589195400224E+000  2.875306830489875E+000  2.911473738121648E+000
2.948095569448441E+000  2.985178046705907E+000  3.022726964106561E+000  3.060748188745145E+000
3.099247661515361E+000  3.138231398038157E+000  3.177705489601678E+000  3.217676104113038E+000
3.258149487062081E+000  3.299131962497236E+000  3.340629934013665E+000  3.382649885753850E+000
3.425198383420734E+000  3.468282075303652E+000  3.511907693317111E+000  3.556082054052681E+000
3.600812059844103E+000  3.646104699845781E+000  3.691967051124871E+000  3.738406279767065E+000
3.785429641996319E+000  3.833044485308651E+000  3.881258249620199E+000  3.930078468429735E+000
3.979512769995770E+000  4.029568878528498E+000  4.080254615396718E+000  4.131577900349932E+000
4.183546752755841E+000  4.236169292853359E+000  4.289453743021439E+000  4.343408429063828E+000
4.398041781509987E+000  4.453362336932396E+000  4.509378739280388E+000  4.566099741230794E+000
4.623534205555569E+000  4.681691106506612E+000  4.740579531218025E+000  4.800208681125976E+000
4.860587873406452E+000  4.921726542431091E+000  4.983634241241311E+000  5.046320643041011E+000
5.109795542708007E+000  5.174068858324510E+000  5.239150632726851E+000  5.305051035074686E+000
5.371780362439966E+000  5.439349041415849E+000  5.507767629745896E+000  5.577046817973730E+000
5.647197431113458E+000  5.718230430341114E+000  5.790156914707342E+000  5.862988122871658E+000
5.936735434858515E+000  6.011410373835446E+000  6.087024607913603E+000  6.163589951970894E+000
6.241118369498102E+000  6.319621974468198E+000  6.399113033229170E+000  6.479603966420686E+000
6.561107350914813E+000  6.643635921781195E+000  6.727202574276940E+000  6.811820365861508E+000
6.897502518237005E+000  6.984262419414053E+000  7.072113625803728E+000  7.161069864335762E+000
7.251145034603400E+000  7.342353211035273E+000  7.434708645094502E+000  7.528225767505559E+000
7.622919190509085E+000  7.718803710145070E+000  7.815894308564800E+000  7.914206156371804E+000
8.013754614992317E+000  8.114555239075536E+000  8.216623778924042E+000  8.319976182954864E+000
8.424628600191395E+000  8.530597382786748E+000  8.637899088578793E+000  8.746550483677366E+000
8.856568545084015E+000  8.967970463344663E+000  9.080773645235686E+000  9.194995716483755E+000
9.310654524519880E+000  9.427768141268142E+000  9.546354865969423E+000  9.666433228040720E+000
9.788021989970410E+000  9.911140150249908E+000  1.003580694634226E+001  1.016204185768799E+001
1.028986460874882E+001  1.041929517208966E+001  1.055035377149935E+001  1.068306088515070E+001
1.081743724880022E+001  1.095350385902811E+001  1.109128197651905E+001  1.123079312938420E+001
1.137205911652505E+001  1.151510201103949E+001  1.165994416367081E+001  1.180660820630005E+001
1.195511705548224E+001  1.210549391602724E+001  1.225776228462544E+001  1.241194595351921E+001
1.256806901422053E+001  1.272615586127524E+001  1.288623119607486E+001  1.304832003071610E+001
1.321244769190915E+001  1.337863982493500E+001  1.354692239765254E+001  1.371732170455615E+001
1.388986437088420E+001  1.406457735677935E+001  1.424148796150111E+001  1.442062382769137E+001
1.460201294569370E+001  1.478568365792683E+001  1.497166466331321E+001  1.515998502176333E+001
1.535067415871631E+001  1.554376186973780E+001  1.573927832517546E+001  1.593725407487324E+001
1.613772005294481E+001  1.634070758260709E+001  1.654624838107459E+001  1.675437456451524E+001
1.696511865306864E+001  1.717851357592738E+001  1.739459267648229E+001  1.761338971753251E+001
1.783493888656080E+001  1.805927480107558E+001  1.828643251401991E+001  1.851644751924858E+001
1.874935575707415E+001  1.898519361988263E+001  1.922399795781989E+001  1.946580608454958E+001
1.971065578308346E+001  1.995858531168510E+001  2.020963340984775E+001  2.046383930434752E+001
2.072124271537258E+001  2.098188386272962E+001  2.124580347212817E+001  2.151304278154418E+001
2.178364354766343E+001  2.205764805240617E+001  2.233509910953374E+001  2.261604007133825E+001
2.290051483541663E+001  2.318856785152950E+001  2.348024412854668E+001  2.377558924147988E+001
2.407464933860384E+001  2.437747114866724E+001  2.468410198819397E+001  2.499458976887655E+001
2.530898300506240E+001  2.562733082133430E+001  2.594968296018627E+001  2.627608978979580E+001
2.660660231189411E+001  2.694127216973520E+001  2.728015165616524E+001  2.762329372179347E+001
2.797075198326577E+001  2.832258073164238E+001  2.867883494088106E+001  2.903957027642676E+001
2.940484310390965E+001  2.977471049795214E+001  3.014923025108705E+001  3.052846088278779E+001