<UPF version="2.0.1">
<PP_INFO>
Generated in analytical, separable form
Author: Goedecker/Hartwigsen/Hutter/Teter
Generation date: Phys.Rev.B58, 3641 (1998); B54, 1703 (1996)
Pseudopotential type: NC
Element: Cd
Functional: SLA-PW-PBX-PBC

Suggested minimum cutoff for wavefunctions:   0. Ry
Suggested minimum cutoff for charge density:   0. Ry
The Pseudo was generated with a Non-Relativistic Calculation
Local Potential: unknown format, L component and cutoff radius: -3   0.0000

Valence configuration:
nl pn  l   occ       Rcut    Rcut US       E pseu

Generation configuration: not available.
Converted from CPMD format using cpmd2upf v.5.0.1 - PG 10Jul2012
Contains atomic orbitals generated by ld1.x - use with care
</PP_INFO>
<!--                               -->
<!-- END OF HUMAN READABLE SECTION -->
<!--                               -->
<PP_HEADER generated="Generated in analytical, separable form" author="Goedecker/Hartwigsen/Hutter/Teter" date="Phys.Rev.B58, 3641 (1998); B54, 1703 (1996)" comment="Contains atomic orbitals generated by ld1.x - use with care" element="Cd" pseudo_type="NC" relativistic="no" is_ultrasoft="F" is_paw="F" is_coulomb="F" has_so="F" has_wfc="F" has_gipaw="F" paw_as_gipaw="F" core_correction="F" functional="SLA-PW-PBX-PBC" z_valence="1.200000000000000E+001" total_psenergy="0.000000000000000E+000" wfc_cutoff="0.000000000000000E+000" rho_cutoff="0.000000000000000E+000" l_max="2" l_max_rho="0" l_local="-3" mesh_size="1239" number_of_wfc=" 3" number_of_proj="7"/>
<PP_MESH dx="1.250000000000000E-002" mesh="1239" xmin="-7.000000000000000E+000" rmax="9.986297427649471E+001" zmesh="4.800000000000000E+001">
<PP_R type="real" size="1239" columns="4">
1.899754094905242E-005  1.923650059727130E-005  1.947846598784546E-005  1.972347492835946E-005
1.997156570195875E-005  2.022277707333144E-005  2.047714829476539E-005  2.073471911228149E-005
2.099552977184397E-005  2.125962102564906E-005  2.152703413849244E-005  2.179781089421705E-005
2.207199360224188E-005  2.234962510417285E-005  2.263074878049704E-005  2.291540855736080E-005
2.320364891343340E-005  2.349551488685692E-005  2.379105208228349E-005  2.409030667800120E-005
2.439332543314947E-005  2.470015569502527E-005  2.501084540648127E-005  2.532544311341697E-005
2.564399797236419E-005  2.596655975816770E-005  2.629317887176280E-005  2.662390634805051E-005
2.695879386387183E-005  2.729789374608250E-005  2.764125897972899E-005  2.798894321632764E-005
2.834100078224779E-005  2.869748668720036E-005  2.905845663283331E-005  2.942396702143503E-005
2.979407496474738E-005  3.016883829288949E-005  3.054831556339382E-005  3.093256607035598E-005
3.132164985369942E-005  3.171562770855691E-005  3.211456119476980E-005  3.251851264650692E-005
3.292754518200452E-005  3.334172271342842E-005  3.376110995686056E-005  3.418577244241096E-005
3.461577652445696E-005  3.505118939201128E-005  3.549207907922029E-005  3.593851447599463E-005
3.639056533877333E-005  3.684830230142335E-005  3.731179688627645E-005  3.778112151530448E-005
3.825634952143557E-005  3.873755516001252E-005  3.922481362039536E-005  3.971820103770993E-005
4.021779450474394E-005  4.072367208399306E-005  4.123591281985826E-005  4.175459675099665E-005
4.227980492282779E-005  4.281161940019706E-005  4.335012328019853E-005  4.389540070515904E-005
4.444753687578559E-005  4.500661806447822E-005  4.557273162881010E-005  4.614596602517743E-005
4.672641082262090E-005  4.731415671682098E-005  4.790929554426950E-005  4.851192029661904E-005
4.912212513521319E-005  4.974000540579945E-005  5.036565765342716E-005  5.099917963753298E-005
5.164067034721580E-005  5.229023001670414E-005  5.294796014101788E-005  5.361396349182708E-005
5.428834413351038E-005  5.497120743941503E-005  5.566266010832189E-005  5.636281018111722E-005
5.707176705767434E-005  5.778964151394768E-005  5.851654571928152E-005  5.925259325393682E-005
5.999789912683839E-005  6.075257979354516E-005  6.151675317444680E-005  6.229053867318875E-005
6.307405719532949E-005  6.386743116723214E-005  6.467078455519393E-005  6.548424288481626E-005
6.630793326061806E-005  6.714198438589638E-005  6.798652658283643E-005  6.884169181287462E-005
6.970761369731817E-005  7.058442753822315E-005  7.147227033953614E-005  7.237128082850112E-005
7.328159947733601E-005  7.420336852518187E-005  7.513673200032772E-005  7.608183574271549E-005
7.703882742672775E-005  7.800785658426209E-005  7.898907462809599E-005  7.998263487554507E-005
8.098869257241938E-005  8.200740491728090E-005  8.303893108600605E-005  8.408343225665747E-005
8.514107163466805E-005  8.621201447834243E-005  8.729642812467873E-005  8.839448201551543E-005
8.950634772400708E-005  9.063219898143269E-005  9.177221170434179E-005  9.292656402204170E-005
9.409543630443055E-005  9.527901119018069E-005  9.647747361527595E-005  9.769101084190856E-005
9.891981248773912E-005  1.001640705555248E-004  1.014239794631201E-004  1.026997360738552E-004
1.039915397272962E-004  1.052995922703920E-004  1.066240980890137E-004  1.079652641398901E-004
1.093232999829455E-004  1.106984178140432E-004  1.120908324981421E-004  1.135007616028694E-004
1.149284254325161E-004  1.163740470624604E-004  1.178378523740231E-004  1.193200700897622E-004
1.208209318092114E-004  1.223406720450678E-004  1.238795282598353E-004  1.254377409029283E-004
1.270155534482425E-004  1.286132124321981E-004  1.302309674922617E-004  1.318690714059531E-004
1.335277801303413E-004  1.352073528420393E-004  1.369080519777004E-004  1.386301432750245E-004
1.403738958142806E-004  1.421395820603506E-004  1.439274779053028E-004  1.457378627115004E-004
1.475710193552525E-004  1.494272342710146E-004  1.513067974961436E-004  1.532100027162174E-004
1.551371473109238E-004  1.570885324005264E-004  1.590644628929159E-004  1.610652475312515E-004
1.630911989422036E-004  1.651426336848022E-004  1.672198722998990E-004  1.693232393602544E-004
1.714530635212506E-004  1.736096775722460E-004  1.757934184885737E-004  1.780046274841946E-004
1.802436500650132E-004  1.825108360828631E-004  1.848065397901720E-004  1.871311198953151E-004
1.894849396186628E-004  1.918683667493363E-004  1.942817737026735E-004  1.967255375784211E-004
1.992000402196565E-004  2.017056682724517E-004  2.042428132462881E-004  2.068118715752294E-004
2.094132446798664E-004  2.120473390300391E-004  2.147145662083488E-004  2.174153429744688E-004
2.201500913302636E-004  2.229192385857277E-004  2.257232174257534E-004  2.285624659777391E-004
2.314374278800480E-004  2.343485523513264E-004  2.372962942606954E-004  2.402811141988257E-004
2.433034785499051E-004  2.463638595645129E-004  2.494627354334088E-004  2.526005903622520E-004
2.557779146472594E-004  2.589952047518142E-004  2.622529633840416E-004  2.655516995753556E-004
2.688919287599973E-004  2.722741728555728E-004  2.756989603446027E-004  2.791668263571006E-004
2.826783127541861E-004  2.862339682127530E-004  2.898343483112007E-004  2.934800156162442E-004
2.971715397708178E-004  3.009094975830808E-004  3.046944731165463E-004  3.085270577813419E-004
3.124078504266188E-004  3.163374574341239E-004  3.203164928129465E-004  3.243455782954602E-004
3.284253434344688E-004  3.325564257015752E-004  3.367394705867891E-004  3.409751316993839E-004
3.452640708700261E-004  3.496069582541869E-004  3.540044724368555E-004  3.584573005385705E-004
3.629661383227816E-004  3.675316903045659E-004  3.721546698607094E-004  3.768357993411729E-004
3.815758101819620E-004  3.863754430194143E-004  3.912354478059252E-004  3.961565839271303E-004
4.011396203205610E-004  4.061853355957915E-004  4.112945181560996E-004  4.164679663216548E-004
4.217064884542582E-004  4.270109030836512E-004  4.323820390354113E-004  4.378207355604590E-004
4.433278424661911E-004  4.489042202492661E-004  4.545507402300578E-004  4.602682846888009E-004
4.660577470034500E-004  4.719200317892702E-004  4.778560550401860E-004  4.838667442719078E-004
4.899530386668564E-004  4.961158892209141E-004  5.023562588920182E-004  5.086751227506257E-004
5.150734681320708E-004  5.215522947908364E-004  5.281126150567697E-004  5.347554539932590E-004
5.414818495574031E-004  5.482928527621940E-004  5.551895278407393E-004  5.621729524125518E-004
5.692442176519285E-004  5.764044284584496E-004  5.836547036296213E-004  5.909961760356896E-004
5.984299927966548E-004  6.059573154615100E-004  6.135793201897352E-004  6.212971979350773E-004
6.291121546316354E-004  6.370254113822936E-004  6.450382046495186E-004  6.531517864485602E-004
6.613674245430824E-004  6.696864026432514E-004  6.781100206063214E-004  6.866395946397368E-004
6.952764575067933E-004  7.040219587348866E-004  7.128774648263756E-004  7.218443594721047E-004
7.309240437676050E-004  7.401179364320201E-004  7.494274740297847E-004  7.588541111950882E-004
7.683993208591669E-004  7.780645944804504E-004  7.878514422776059E-004  7.977613934655138E-004
8.077959964942085E-004  8.179568192908295E-004  8.282454495046107E-004  8.386634947549552E-004
8.492125828826297E-004  8.598943622041156E-004  8.707105017691650E-004  8.816626916215899E-004
8.927526430633372E-004  9.039820889218828E-004  9.153527838209880E-004  9.268665044548651E-004
9.385250498657880E-004  9.503302417251959E-004  9.622839246183359E-004  9.743879663324787E-004
9.866442581487694E-004  9.990547151377390E-004  1.011621276458541E-003  1.024345905661950E-003
1.037230590997166E-003  1.050277345722487E-003  1.063488208419884E-003  1.076865243313529E-003
1.090410540592342E-003  1.104126216736580E-003  1.118014414848544E-003  1.132077304987448E-003
1.146317084508484E-003  1.160735978406176E-003  1.175336239662029E-003  1.190120149596569E-003
1.205090018225802E-003  1.220248184622157E-003  1.235597017279974E-003  1.251138914485583E-003
1.266876304692041E-003  1.282811646898588E-003  1.298947431034863E-003  1.315286178349967E-003
1.331830441806408E-003  1.348582806479011E-003  1.365545889958841E-003  1.382722342762200E-003
1.400114848744787E-003  1.417726125521046E-003  1.435558924888804E-003  1.453616033259243E-003
1.471900272092283E-003  1.490414498337443E-003  1.509161604880240E-003  1.528144520994211E-003
1.547366212798623E-003  1.566829683721925E-003  1.586537974971049E-003  1.606494166006599E-003
1.626701375024024E-003  1.647162759440848E-003  1.667881516390011E-003  1.688860883219443E-003
1.710104137997892E-003  1.731614600027137E-003  1.753395630360633E-003  1.775450632328684E-003
1.797783052070220E-003  1.820396379071259E-003  1.843294146710152E-003  1.866479932809682E-003
1.889957360196094E-003  1.913730097265186E-003  1.937801858555490E-003  1.962176405328681E-003
1.986857546157285E-003  2.011849137519767E-003  2.037155084403127E-003  2.062779340913049E-003
2.088725910891745E-003  2.114998848543564E-003  2.141602259068467E-003  2.168540299303473E-003
2.195817178372175E-003  2.223437158342421E-003  2.251404554892277E-003  2.279723737984353E-003
2.308399132548623E-003  2.337435219173829E-003  2.366836534807579E-003  2.396607673465259E-003
2.426753286947853E-003  2.457278085568803E-003  2.488186838889993E-003  2.519484376467014E-003
2.551175588603790E-003  2.583265427116692E-003  2.615758906108276E-003  2.648661102750742E-003
2.681977158079255E-003  2.715712277795244E-003  2.749871733079796E-003  2.784460861417301E-003
2.819485067429432E-003  2.854949823719635E-003  2.890860671728235E-003  2.927223222598295E-003
2.964043158052367E-003  3.001326231280277E-003  3.039078267838071E-003  3.077305166558268E-003
3.116012900471565E-003  3.155207517740137E-003  3.194895142602677E-003  3.235081976331313E-003
3.275774298200576E-003  3.316978466468548E-003  3.358700919370350E-003  3.400948176124134E-003
3.443726837949720E-003  3.487043589100053E-003  3.530905197905628E-003  3.575318517832058E-003
3.620290488550941E-003  3.665828137024199E-003  3.711938578602052E-003  3.758629018134809E-003
3.805906751098639E-003  3.853779164735507E-003  3.902253739207440E-003  3.951338048765319E-003
4.001039762932378E-003  4.051366647702575E-003  4.102326566754044E-003  4.153927482677817E-003
4.206177458221989E-003  4.259084657551543E-003  4.312657347524014E-003  4.366903898981206E-003
4.421832788057149E-003  4.477452597502513E-003  4.533772018025686E-003  4.590799849650706E-003
4.648545003092289E-003  4.707016501148144E-003  4.766223480108803E-003  4.826175191185185E-003
4.886881001954119E-003  4.948350397822046E-003  5.010592983507130E-003  5.073618484540017E-003
5.137436748783470E-003  5.202057747971117E-003  5.267491579265552E-003  5.333748466836045E-003
5.400838763456075E-003  5.468772952120986E-003  5.537561647685972E-003  5.607215598524665E-003
5.677745688208598E-003  5.749162937207775E-003  5.821478504612654E-003  5.894703689877770E-003
5.968849934587295E-003  6.043928824242821E-003  6.119952090073603E-003  6.196931610869597E-003
6.274879414837546E-003  6.353807681480403E-003  6.433728743500416E-003  6.514655088726122E-003
6.596599362063611E-003  6.679574367472307E-003  6.763593069965621E-003  6.848668597636755E-003
6.934814243709993E-003  7.022043468617799E-003  7.110369902104037E-003  7.199807345353637E-003
7.290369773149073E-003  7.382071336053934E-003  7.474926362623994E-003  7.568949361646070E-003
7.664155024405051E-003  7.760558226979439E-003  7.858174032565772E-003  7.957017693832271E-003
8.057104655302112E-003  8.158450555766647E-003  8.261071230729021E-003  8.364982714878474E-003
8.470201244595818E-003  8.576743260490387E-003  8.684625409968928E-003  8.793864549836784E-003
8.904477748931808E-003  9.016482290791404E-003  9.129895676353113E-003  9.244735626689168E-003
9.361020085775454E-003  9.478767223295286E-003  9.597995437478458E-003  9.718723357976010E-003
9.840969848771143E-003  9.964754011126755E-003  1.009009518657005E-002  1.021701295991471E-002
1.034552716232104E-002  1.047565787439461E-002  1.060742542932395E-002  1.074085041605759E-002
1.087595368252117E-002  1.101275633887495E-002  1.115127976081230E-002  1.129154559289974E-002
1.143357575195889E-002  1.157739243049107E-002  1.172301810014491E-002  1.187047551522757E-002
1.201978771626014E-002  1.217097803357783E-002  1.232407009097532E-002  1.247908780939803E-002
1.263605541067987E-002  1.279499742132788E-002  1.295593867635459E-002  1.311890432315855E-002
1.328391982545362E-002  1.345101096724776E-002  1.362020385687182E-002  1.379152493105905E-002
1.396500095907582E-002  1.414065904690447E-002  1.431852664147859E-002  1.449863153497171E-002
1.468100186913987E-002  1.486566613971881E-002  1.505265320087651E-002  1.524199226972171E-002
1.543371293086913E-002  1.562784514106213E-002  1.582441923385352E-002  1.602346592434523E-002
1.622501631398761E-002  1.642910189543910E-002  1.663575455748703E-002  1.684500659003027E-002
1.705689068912463E-002  1.727143996209168E-002  1.748868793269183E-002  1.770866854636247E-002
1.793141617552204E-002  1.815696562494079E-002  1.838535213717908E-002  1.861661139809408E-002
1.885077954241583E-002  1.908789315939329E-002  1.932798929851152E-002  1.957110547528075E-002
1.981727967709821E-002  2.006655036918379E-002  2.031895650059027E-002  2.057453751028920E-002
2.083333333333334E-002  2.109538440709656E-002  2.136073167759228E-002  2.162941660587137E-002
2.190148117450051E-002  2.217696789412208E-002  2.245591981009650E-002  2.273838050922817E-002
2.302439412657600E-002  2.331400535234960E-002  2.360725943889222E-002  2.390420220775151E-002
2.420488005683924E-002  2.450933996768106E-002  2.481762951275747E-002  2.512979686293711E-002
2.544589079500355E-002  2.576596069927678E-002  2.609005658733052E-002  2.641822909980666E-002
2.675052951432796E-002  2.708700975351024E-002  2.742772239307546E-002  2.777272067006674E-002
2.812205849116674E-002  2.847579044112077E-002  2.883397179126566E-002  2.919665850816612E-002
2.956390726235954E-002  2.993577543721094E-002  3.031232113787921E-002  3.069360320039617E-002
3.107968120085981E-002  3.147061546474319E-002  3.186646707632040E-002  3.226729788821112E-002
3.267317053104520E-002  3.308414842324883E-002  3.350029578095382E-002  3.392167762803147E-002
3.434835980625268E-002  3.478040898557590E-002  3.521789267456442E-002  3.566087923093469E-002
3.610943787223742E-002  3.656363868667290E-002  3.702355264404248E-002  3.748925160683770E-002
3.796080834146896E-002  3.843829652963543E-002  3.892179077983798E-002  3.941136663903688E-002
3.990710060445619E-002  4.040907013553656E-002  4.091735366603850E-002  4.143203061629776E-002
4.195318140563495E-002  4.248088746492117E-002  4.301523124930182E-002  4.355629625108035E-002
4.410416701276407E-002  4.465892914027417E-002  4.522066931632174E-002  4.578947531395214E-002
4.636543601025977E-002  4.694864140027519E-002  4.753918261102718E-002  4.813715191578136E-002
4.874264274845817E-002  4.935574971823210E-002  4.997656862431456E-002  5.060519647092269E-002
5.124173148243647E-002  5.188627311874650E-002  5.253892209079478E-002  5.319978037631101E-002
5.386895123574682E-002  5.454653922841046E-002  5.523265022880433E-002  5.592739144316815E-002
5.663087142623013E-002  5.734320009816887E-002  5.806448876178857E-002  5.879485011991045E-002
5.953439829298261E-002  6.028324883691171E-002  6.104151876111880E-002  6.180932654682226E-002
6.258679216555073E-002  6.337403709788886E-002  6.417118435245901E-002  6.497835848514154E-002
6.579568561853685E-002  6.662329346167244E-002  6.746131132995754E-002  6.830987016538907E-002
6.916910255701143E-002  7.003914276163396E-002  7.092012672480877E-002  7.181219210207242E-002
7.271547828045506E-002  7.363012640025982E-002  7.455627937711626E-002  7.549408192431133E-002
7.644368057540096E-002  7.740522370710637E-002  7.837886156249817E-002  7.936474627447214E-002
8.036303188952033E-002  8.137387439180112E-002  8.239743172751206E-002  8.343386382956930E-002
8.448333264259743E-002  8.554600214823364E-002  8.662203839075021E-002  8.771160950299922E-002
8.881488573268374E-002  8.993203946895929E-002  9.106324526937000E-002  9.220867988712367E-002
9.336852229870973E-002  9.454295373186468E-002  9.573215769388939E-002  9.693632000032236E-002
9.815562880397383E-002  9.939027462432511E-002  1.006404503772975E-001  1.019063514053960E-001
1.031881755082316E-001  1.044861229734284E-001  1.058003966079184E-001  1.071312017696310E-001
1.084787463995802E-001  1.098432410543561E-001  1.112248989390246E-001  1.126239359404410E-001
1.140405706609834E-001  1.154750244527089E-001  1.169275214519408E-001  1.183982886142905E-001
1.198875557501194E-001  1.213955555604474E-001  1.229225236733129E-001  1.244686986805901E-001
1.260343221752698E-001  1.276196387892081E-001  1.292248962313514E-001  1.308503453264410E-001
1.324962400542049E-001  1.341628375890430E-001  1.358503983402107E-001  1.375591859925090E-001
1.392894675474849E-001  1.410415133651517E-001  1.428155972062330E-001  1.446119962749383E-001
1.464309912622770E-001  1.482728663899166E-001  1.501379094545932E-001  1.520264118730799E-001
1.539386687277219E-001  1.558749788125434E-001  1.578356446799344E-001  1.598209726879257E-001
1.618312730480579E-001  1.638668598738520E-001  1.659280512298912E-001  1.680151691815182E-001
1.701285398451595E-001  1.722684934392807E-001  1.744353643359847E-001  1.766294911132579E-001
1.788512166078728E-001  1.811008879689585E-001  1.833788567122419E-001  1.856854787749738E-001
1.880211145715443E-001  1.903861290497985E-001  1.927808917480604E-001  1.952057768528737E-001
1.976611632574694E-001  2.001474346209689E-001  2.026649794283310E-001  2.052141910510540E-001
2.077954678086401E-001  2.104092130308345E-001  2.130558351206459E-001  2.157357476181603E-001
2.184493692651579E-001  2.211971240705419E-001  2.239794413765908E-001  2.267967559260447E-001
2.296495079300334E-001  2.325381431368619E-001  2.354631129016581E-001  2.384248742568985E-001
2.414238899838208E-001  2.444606286847336E-001  2.475355648562376E-001  2.506491789633654E-001
2.538019575146558E-001  2.569943931381721E-001  2.602269846584753E-001  2.635002371745673E-001
2.668146621388134E-001  2.701707774368571E-001  2.735691074685422E-001  2.770101832298498E-001
2.804945423958687E-001  2.840227294048076E-001  2.875952955430646E-001  2.912127990313675E-001
2.948758051119960E-001  2.985848861371028E-001  3.023406216581443E-001  3.061435985164364E-001
3.099944109348509E-001  3.138936606106623E-001  3.178419568095660E-001  3.218399164608756E-001
3.258881642539204E-001  3.299873327356547E-001  3.341380624094932E-001  3.383410018353926E-001
3.425968077311888E-001  3.469061450752115E-001  3.512696872101884E-001  3.556881159484555E-001
3.601621216784927E-001  3.646924034727977E-001  3.692796691971177E-001  3.739246356210552E-001
3.786280285300639E-001  3.833905828388553E-001  3.882130427062295E-001  3.930961616513519E-001
3.980407026714929E-001  4.030474383612462E-001  4.081171510332500E-001  4.132506328404236E-001
4.184486858997432E-001  4.237121224175754E-001  4.290417648165841E-001  4.344384458642379E-001
4.399030088029297E-001  4.454363074817365E-001  4.510392064898348E-001  4.567125812915931E-001
4.624573183633676E-001  4.682743153320130E-001  4.741644811151404E-001  4.801287360631373E-001
4.861680121029734E-001  4.922832528838172E-001  4.984754139244823E-001  5.047454627627289E-001
5.110943791064451E-001  5.175231549867260E-001  5.240327949128828E-001  5.306243160293979E-001
5.372987482748557E-001  5.440571345428745E-001  5.509005308450584E-001  5.578300064760028E-001
5.648466441803731E-001  5.719515403220857E-001  5.791458050556183E-001  5.864305624994720E-001
5.938069509118186E-001  6.012761228683549E-001  6.088392454423949E-001  6.164975003872285E-001
6.242520843207714E-001  6.321042089125403E-001  6.400551010729778E-001  6.481060031451599E-001
6.562581730989157E-001  6.645128847273857E-001  6.728714278460561E-001  6.813351084942952E-001
6.899052491394234E-001  6.985831888833531E-001  7.073702836718243E-001  7.162679065062750E-001
7.252774476583760E-001  7.344003148872617E-001  7.436379336594978E-001  7.529917473718114E-001
7.624632175766252E-001  7.720538242104290E-001  7.817650658250211E-001  7.915984598216621E-001
8.015555426881699E-001  8.116378702389997E-001  8.218470178583449E-001  8.321845807462908E-001
8.426521741680711E-001  8.532514337064546E-001  8.639840155173077E-001  8.748515965883752E-001
8.858558750013085E-001  8.969985701969988E-001  9.082814232442402E-001  9.197061971117760E-001
9.312746769437679E-001  9.429886703387247E-001  9.548500076319478E-001  9.668605421815207E-001
9.790221506579022E-001  9.913367333371604E-001  1.003806214397893E+000  1.016432542221884E+000
1.029217689698546E+000  1.042163654533183E+000  1.055272459559139E+000  1.068546153053869E+000
1.081986809058989E+000  1.095596527704343E+000  1.109377435536159E+000  1.123331685849324E+000
1.137461459023839E+000  1.151768962865509E+000  1.166256432950920E+000  1.180926132976746E+000
1.195780355113463E+000  1.210821420363501E+000  1.226051678923904E+000  1.241473510553562E+000
1.257089324945042E+000  1.272901562101112E+000  1.288912692715999E+000  1.305125218561435E+000
1.321541672877570E+000  1.338164620768789E+000  1.354996659604521E+000  1.372040419425078E+000
1.389298563352608E+000  1.406773788007212E+000  1.424468823928295E+000  1.442386436001222E+000
1.460529423889332E+000  1.478900622471395E+000  1.497502902284564E+000  1.516339169972910E+000
1.535412368741580E+000  1.554725478816687E+000  1.574281517910973E+000  1.594083541695331E+000
1.614134644276269E+000  1.634437958679357E+000  1.654996657338779E+000  1.675813952593027E+000
1.696893097186836E+000  1.718237384779438E+000  1.739850150459193E+000  1.761734771264710E+000
1.783894666712514E+000  1.806333299331352E+000  1.829054175203226E+000  1.852060844511215E+000
1.875356902094206E+000  1.898945988008593E+000  1.922831788097039E+000  1.947018034564410E+000
1.971508506560920E+000  1.996307030772645E+000  2.021417482019447E+000  2.046843783860418E+000
2.072589909206955E+000  2.098659880943524E+000  2.125057772556245E+000  2.151787708769393E+000
2.178853866189880E+000  2.206260473959873E+000  2.234011814417595E+000  2.262112223766452E+000
2.290566092752575E+000  2.319377867350882E+000  2.348552049459776E+000  2.378093197604563E+000
2.408005927649745E+000  2.438294913520248E+000  2.468964887931736E+000  2.500020643130114E+000
2.531467031640312E+000  2.563308967024513E+000  2.595551424649905E+000  2.628199442466087E+000
2.661258121792269E+000  2.694732628114354E+000  2.728628191892057E+000  2.762950109376181E+000
2.797703743436157E+000  2.832894524398020E+000  2.868527950892890E+000  2.904609590716152E+000
2.941145081697437E+000  2.978140132581542E+000  3.015600523920437E+000  3.053532108976483E+000
3.091940814637015E+000  3.130832642340437E+000  3.170213669013950E+000  3.210090048023099E+000
3.250468010133231E+000  3.291353864483075E+000  3.332753999570556E+000  3.374674884251007E+000
3.417123068747955E+000  3.460105185676586E+000  3.503627951080116E+000  3.547698165479190E+000
3.592322714934465E+000  3.637508572122590E+000  3.683262797425676E+000  3.729592540034517E+000
3.776505039065654E+000  3.824007624692500E+000  3.872107719290712E+000  3.920812838597927E+000
3.970130592888129E+000  4.020068688160762E+000  4.070634927344812E+000  4.121837211518033E+000
4.173683541141497E+000  4.226182017309688E+000  4.279340843016320E+000  4.333168324436055E+000
4.387672872222386E+000  4.442863002821793E+000  4.498747339804464E+000  4.555334615211754E+000
4.612633670920566E+000  4.670653460024940E+000  4.729403048234960E+000  4.788891615293314E+000
4.849128456409631E+000  4.910122983712887E+000  4.971884727722077E+000  5.034423338835349E+000
5.097748588837930E+000  5.161870372428965E+000  5.226798708767595E+000  5.292543743038480E+000
5.359115748036978E+000  5.426525125774313E+000  5.494782409102901E+000  5.563898263362128E+000
5.633883488044849E+000  5.704749018484804E+000  5.776505927565296E+000  5.849165427449365E+000
5.922738871331686E+000  5.997237755212564E+000  6.072673719694170E+000  6.149058551799428E+000
6.226404186813762E+000  6.304722710149997E+000  6.384026359236756E+000  6.464327525430551E+000
6.545638755951969E+000  6.627972755846209E+000  6.711342389968261E+000  6.795760684993084E+000
6.881240831451019E+000  6.967796185788861E+000  7.055440272456824E+000  7.144186786021758E+000
7.234049593306974E+000  7.325042735558934E+000  7.417180430641238E+000  7.510477075256202E+000
7.604947247194352E+000  7.700605707612269E+000  7.797467403339003E+000  7.895547469211581E+000
7.994861230439838E+000  8.095424205001017E+000  8.197252106064502E+000  8.300360844446999E+000
8.404766531098657E+000  8.510485479620428E+000  8.617534208813099E+000  8.725929445258416E+000
8.835688125932595E+000  8.946827400852799E+000  9.059364635756847E+000  9.173317414816644E+000
9.288703543385774E+000  9.405541050781574E+000  9.523848193102278E+000  9.643643456079575E+000
9.764945557967021E+000  9.887773452464844E+000  1.001214633168144E+001  1.013808362913224E+001
1.026560502277618E+001  1.039473043809046E+001  1.052548005118394E+001  1.065787429194967E+001
1.079193384725713E+001  1.092767966418459E+001  1.106513295329211E+001  1.120431519193577E+001
1.134524812762353E+001  1.148795378141332E+001  1.163245445135387E+001  1.177877271596886E+001
1.192693143778482E+001  1.207695376690347E+001  1.222886314461895E+001  1.238268330708059E+001
1.253843828900171E+001  1.269615242741516E+001  1.285585036547591E+001  1.301755705631170E+001
1.318129776692196E+001  1.334709808212585E+001  1.351498390855997E+001  1.368498147872624E+001
1.385711735509088E+001  1.403141843423478E+001  1.420791195105616E+001  1.438662548302612E+001
1.456758695449762E+001  1.475082464106875E+001  1.493636717400083E+001  1.512424354469211E+001
1.531448310920778E+001  1.550711559286681E+001  1.570217109488671E+001  1.589968009308649E+001
1.609967344864896E+001  1.630218241094283E+001  1.650723862240546E+001  1.671487412348708E+001
1.692512135765717E+001  1.713801317647380E+001  1.735358284471683E+001  1.757186404558549E+001
1.779289088596151E+001  1.801669790173837E+001  1.824332006321762E+001  1.847279278057309E+001
1.870515190938372E+001  1.894043375623611E+001  1.917867508439752E+001  1.941991311956017E+001
1.966418555565789E+001  1.991153056075578E+001  2.016198678301411E+001  2.041559335672717E+001
2.067238990843805E+001  2.093241656313044E+001  2.119571395049815E+001  2.146232321129364E+001
2.173228600375633E+001  2.200564451012177E+001  2.228244144321278E+001  2.256272005311325E+001
2.284652413392624E+001  2.313389803061677E+001  2.342488664594084E+001  2.371953544746167E+001
2.401789047465393E+001  2.431999834609763E+001  2.462590626676233E+001  2.493566203538299E+001
2.524931405192870E+001  2.556691132516514E+001  2.588850348031243E+001  2.621414076679909E+001
2.654387406611363E+001  2.687775489975494E+001  2.721583543728256E+001  2.755816850446830E+001
2.790480759155040E+001  2.825580686159142E+001  2.861122115894148E+001  2.897110601780760E+001
2.933551767093118E+001  2.970451305837442E+001  3.007814983641730E+001  3.045648638656662E+001
3.083958182467805E+001  3.122749601019319E+001  3.162028955549277E+001  3.201802383536734E+001
3.242076099660739E+001  3.282856396771371E+001  3.324149646873022E+001  3.365962302120032E+001
3.408300895824848E+001  3.451172043478882E+001  3.494582443786174E+001  3.538538879710091E+001
3.583048219533175E+001  3.628117417930331E+001  3.673753517055496E+001  3.719963647642015E+001
3.766755030116801E+001  3.814134975728567E+001  3.862110887690208E+001  3.910690262335573E+001
3.959880690290793E+001  4.009689857660310E+001  4.060125547227864E+001  4.111195639672562E+001
4.162908114800248E+001  4.215271052790377E+001  4.268292635458541E+001  4.321981147534903E+001
4.376344977958707E+001  4.431392621189056E+001  4.487132678532208E+001  4.543573859485523E+001
4.600724983098356E+001  4.658594979350045E+001  4.717192890545240E+001  4.776527872726788E+001
4.836609197106372E+001  4.897446251513162E+001  4.959048541860682E+001  5.021425693632128E+001
5.084587453384376E+001  5.148543690270890E+001  5.213304397583803E+001  5.278879694315388E+001