<UPF version="2.0.1">
<PP_INFO>
Generated in analytical, separable form
Author: Goedecker/Hartwigsen/Hutter/Teter
Generation date: Phys.Rev.B58, 3641 (1998); B54, 1703 (1996)
Pseudopotential type: NC
Element: Hf
Functional: SLA-PW-PBX-PBC

Suggested minimum cutoff for wavefunctions:   0. Ry
Suggested minimum cutoff for charge density:   0. Ry
The Pseudo was generated with a Non-Relativistic Calculation
Local Potential: unknown format, L component and cutoff radius: -3   0.0000

Valence configuration:
nl pn  l   occ       Rcut    Rcut US       E pseu

Generation configuration: not available.
Converted from CPMD format using cpmd2upf v.5.0.1 - PG 10Jul2012
Atomic orbitals could not be generated by ld1.x - use with care
</PP_INFO>
<!--                               -->
<!-- END OF HUMAN READABLE SECTION -->
<!--                               -->
<PP_HEADER generated="Generated in analytical, separable form" author="Goedecker/Hartwigsen/Hutter/Teter" date="Phys.Rev.B58, 3641 (1998); B54, 1703 (1996)" comment="Atomic orbitals could not be generated by ld1.x - use with care" element="Hf" pseudo_type="NC" relativistic="no" is_ultrasoft="F" is_paw="F" is_coulomb="F" has_so="F" has_wfc="F" has_gipaw="F" paw_as_gipaw="F" core_correction="F" functional="SLA-PW-PBX-PBC" z_valence="1.200000000000000E+001" total_psenergy="0.000000000000000E+000" wfc_cutoff="0.000000000000000E+000" rho_cutoff="0.000000000000000E+000" l_max="2" l_max_rho="0" l_local="-3" mesh_size="1271" number_of_wfc="0" number_of_proj="7"/>
<PP_MESH dx="1.250000000000000E-002" mesh="1271" xmin="-7.000000000000000E+000" rmax="9.931870093705965E+001" zmesh="7.200000000000000E+001">
<PP_R type="real" size="1271" columns="4">
1.266502729936828E-005  1.282433373151420E-005  1.298564399189697E-005  1.314898328557297E-005
1.331437713463916E-005  1.348185138222096E-005  1.365143219651026E-005  1.382314607485432E-005
1.399701984789598E-005  1.417308068376604E-005  1.435135609232829E-005  1.453187392947804E-005
1.471466240149459E-005  1.489975006944857E-005  1.508716585366469E-005  1.527693903824053E-005
1.546909927562227E-005  1.566367659123795E-005  1.586070138818899E-005  1.606020445200080E-005
1.626221695543298E-005  1.646677046335018E-005  1.667389693765418E-005  1.688362874227798E-005
1.709599864824279E-005  1.731103983877847E-005  1.752878591450853E-005  1.774927089870034E-005
1.797252924258122E-005  1.819859583072167E-005  1.842750598648599E-005  1.865929547755176E-005
1.889400052149853E-005  1.913165779146690E-005  1.937230442188887E-005  1.961597801429002E-005
1.986271664316492E-005  2.011255886192633E-005  2.036554370892921E-005  2.062171071357065E-005
2.088109990246628E-005  2.114375180570461E-005  2.140970746317986E-005  2.167900843100461E-005
2.195169678800302E-005  2.222781514228562E-005  2.250740663790704E-005  2.279051496160731E-005
2.307718434963797E-005  2.336745959467418E-005  2.366138605281353E-005  2.395900965066309E-005
2.426037689251555E-005  2.456553486761556E-005  2.487453125751764E-005  2.518741434353632E-005
2.550423301429038E-005  2.582503677334168E-005  2.614987574693024E-005  2.647880069180662E-005
2.681186300316263E-005  2.714911472266204E-005  2.749060854657218E-005  2.783639783399777E-005
2.818653661521853E-005  2.854107960013137E-005  2.890008218679902E-005  2.926360047010603E-005
2.963169125052372E-005  3.000441204298548E-005  3.038182108587340E-005  3.076397735011829E-005
3.115094054841394E-005  3.154277114454732E-005  3.193953036284633E-005  3.234128019774602E-005
3.274808342347546E-005  3.316000360386630E-005  3.357710510228477E-005  3.399945309168865E-005
3.442711356481054E-005  3.486015334446942E-005  3.529864009401192E-005  3.574264232788472E-005
3.619222942234025E-005  3.664747162627669E-005  3.710844007221459E-005  3.757520678741148E-005
3.804784470511623E-005  3.852642767596512E-005  3.901103047952101E-005  3.950172883595788E-005
3.999859941789227E-005  4.050171986236344E-005  4.101116878296454E-005  4.152702578212583E-005
4.204937146355299E-005  4.257828744482143E-005  4.311385637012929E-005  4.365616192321084E-005
4.420528884041204E-005  4.476132292393092E-005  4.532435105522428E-005  4.589446120858308E-005
4.647174246487878E-005  4.705628502548210E-005  4.764818022635743E-005  4.824752055233408E-005
4.885439965155734E-005  4.946891235012125E-005  5.009115466688515E-005  5.072122382847699E-005
5.135921828448517E-005  5.200523772284139E-005  5.265938308539733E-005  5.332175658369671E-005
5.399246171494625E-005  5.467160327818726E-005  5.535928739067070E-005  5.605562150443831E-005
5.676071442311204E-005  5.747467631889496E-005  5.819761874978582E-005  5.892965467701028E-005
5.967089848267138E-005  6.042146598762179E-005  6.118147446956120E-005  6.195104268136113E-005
6.273029086962036E-005  6.351934079345379E-005  6.431831574351730E-005  6.512734056127238E-005
6.594654165849274E-005  6.677604703701653E-005  6.761598630874671E-005  6.846649071590350E-005
6.932769315153080E-005  7.019972818026131E-005  7.108273205934243E-005  7.197684275992674E-005
7.288219998863034E-005  7.379894520936216E-005  7.472722166542806E-005  7.566717440191291E-005
7.661895028834404E-005  7.758269804164027E-005  7.855856824934873E-005  7.954671339317479E-005
8.054728787280760E-005  8.156044803004516E-005  8.258635217322352E-005  8.362516060195220E-005
8.467703563216164E-005  8.574214162146538E-005  8.682064499484113E-005  8.791271427063538E-005
8.901852008689421E-005  9.013823522802621E-005  9.127203465180026E-005  9.242009551668297E-005
9.358259720952038E-005  9.475972137356705E-005  9.595165193686851E-005  9.715857514100024E-005
9.838067957016832E-005  9.961815618067638E-005  1.008711983307624E-004  1.021400018108116E-004
1.034247648739492E-004  1.047256882670176E-004  1.060429752619439E-004  1.073768316875010E-004
1.087274659614691E-004  1.100950891232014E-004  1.114799148665994E-004  1.128821595735029E-004
1.143020423475004E-004  1.157397850481640E-004  1.171956123257158E-004  1.186697516561297E-004
1.201624333766755E-004  1.216738907219087E-004  1.232043598601147E-004  1.247540799302101E-004
1.263232930791086E-004  1.279122444995575E-004  1.295211824684490E-004  1.311503583856141E-004
1.328000268131043E-004  1.344704455149678E-004  1.361618754975254E-004  1.378745810501529E-004
1.396088297865776E-004  1.413648926866927E-004  1.431430441388992E-004  1.449435619829792E-004
1.467667275535091E-004  1.486128257238184E-004  1.504821449505022E-004  1.523749773184928E-004
1.542916185866987E-004  1.562323682342176E-004  1.581975295071302E-004  1.601874094658838E-004
1.622023190332700E-004  1.642425730430086E-004  1.663084902889392E-004  1.684003935748347E-004
1.705186097648396E-004  1.726634698345428E-004  1.748353089226944E-004  1.770344663835704E-004
1.792612858399982E-004  1.815161152370485E-004  1.837993068964018E-004  1.861112175714004E-004
1.884522085027907E-004  1.908226454751686E-004  1.932228988741338E-004  1.956533437441628E-004
1.981143598472119E-004  2.006063317220539E-004  2.031296487443642E-004  2.056847051875613E-004
2.082719002844126E-004  2.108916382894159E-004  2.135443285419643E-004  2.162303855303068E-004
2.189502289563125E-004  2.217042838010501E-004  2.244929803911927E-004  2.273167544662559E-004
2.301760472466841E-004  2.330713055027913E-004  2.360029816245704E-004  2.389715336923803E-004
2.419774255485210E-004  2.450211268697106E-004  2.481031132404729E-004  2.512238662274486E-004
2.543838734546414E-004  2.575836286796095E-004  2.608236318706168E-004  2.641043892847536E-004
2.674264135470407E-004  2.707902237305277E-004  2.741963454373998E-004  2.776453108811032E-004
2.811376589695054E-004  2.846739353891008E-004  2.882546926902742E-004  2.918804903736393E-004
2.955518949774608E-004  2.992694801661774E-004  3.030338268200385E-004  3.068455231258673E-004
3.107051646689667E-004  3.146133545261802E-004  3.185707033601241E-004  3.225778295146052E-004
3.266353591112376E-004  3.307439261472761E-004  3.349041725946788E-004  3.391167485004172E-004
3.433823120880472E-004  3.477015298605576E-004  3.520750767045131E-004  3.565036359955060E-004
3.609878997049354E-004  3.655285685081294E-004  3.701263518938262E-004  3.747819682750345E-004
3.794961451012857E-004  3.842696189722997E-004  3.891031357530809E-004  3.939974506904597E-004
3.989533285311032E-004  4.039715436410066E-004  4.090528801264902E-004  4.141981319567182E-004
4.194081030877569E-004  4.246836075881958E-004  4.300254697663457E-004  4.354345242990401E-004
4.409116163620549E-004  4.464576017621676E-004  4.520733470708810E-004  4.577597297598245E-004
4.635176383378622E-004  4.693479724899244E-004  4.752516432175838E-004  4.812295729814031E-004
4.872826958450700E-004  4.934119576213467E-004  4.996183160198565E-004  5.059027407967255E-004
5.122662139061113E-004  5.187097296536336E-004  5.252342948517373E-004  5.318409289770091E-004
5.385306643294724E-004  5.453045461938864E-004  5.521636330030738E-004  5.591089965033035E-004
5.661417219217531E-004  5.732629081360770E-004  5.804736678461100E-004  5.877751277477266E-004
5.951684287088915E-004  6.026547259479219E-004  6.102351892139919E-004  6.179110029699100E-004
6.256833665771919E-004  6.335534944834640E-004  6.415226164122239E-004  6.495919775549859E-004
6.577628387658463E-004  6.660364767584927E-004  6.744141843056941E-004  6.828972704412998E-004
6.914870606647770E-004  7.001848971483247E-004  7.089921389465891E-004  7.179101622090193E-004
7.269403603948946E-004  7.360841444910532E-004  7.453429432323630E-004  7.547182033249652E-004
7.642113896723226E-004  7.738239856041170E-004  7.835574931080191E-004  7.934134330643790E-004
8.033933454838679E-004  8.134987897481045E-004  8.237313448533159E-004  8.340926096570551E-004
8.445842031280274E-004  8.552077645990588E-004  8.659649540232421E-004  8.768574522333111E-004
8.878869612042722E-004  8.990552043193410E-004  9.103639266392272E-004  9.218148951748000E-004
9.334098991631914E-004  9.451507503473642E-004  9.570392832592026E-004  9.690773555061620E-004
9.812668480615222E-004  9.936096655582952E-004  1.006107736586826E-003  1.018763013996141E-003
1.031577475199082E-003  1.044553122481283E-003  1.057691983314033E-003  1.070996110671066E-003
1.084467583349349E-003  1.098108506293898E-003  1.111921010926674E-003  1.125907255479629E-003
1.140069425331928E-003  1.154409733351424E-003  1.168930420240422E-003  1.183633754885789E-003
1.198522034713480E-003  1.213597586047506E-003  1.228862764473435E-003  1.244319955206454E-003
1.259971573464063E-003  1.275820064843457E-003  1.291867905703660E-003  1.308117603552454E-003
1.324571697438190E-003  1.341232758346511E-003  1.358103389602085E-003  1.375186227275366E-003
1.392483940594497E-003  1.409999232362376E-003  1.427734839378978E-003  1.445693532868982E-003
1.463878118914783E-003  1.482291438894947E-003  1.500936369928185E-003  1.519815825322902E-003
1.538932755032416E-003  1.558290146115886E-003  1.577891023205052E-003  1.597738448976839E-003
1.617835524631902E-003  1.638185390379202E-003  1.658791225926662E-003  1.679656250978010E-003
1.700783725735860E-003  1.722176951411128E-003  1.743839270738851E-003  1.765774068500495E-003
1.787984772052837E-003  1.810474851863496E-003  1.833247822053198E-003  1.856307240944867E-003
1.879656711619621E-003  1.903299882479757E-003  1.927240447818823E-003  1.951482148398863E-003
1.976028772034911E-003  2.000884154186851E-003  2.026052178558714E-003  2.051536777705512E-003
2.077341933647709E-003  2.103471678493425E-003  2.129930095068451E-003  2.156721317554209E-003
2.183849532133718E-003  2.211318977645699E-003  2.239133946246900E-003  2.267298784082756E-003
2.295817891966480E-003  2.324695726066702E-003  2.353936798603752E-003  2.383545678554705E-003
2.413526992367294E-003  2.443885424682800E-003  2.474625719068035E-003  2.505752678756539E-003
2.537271167399093E-003  2.569186109823671E-003  2.601502492804960E-003  2.634225365843546E-003
2.667359841954919E-003  2.700911098468383E-003  2.734884377836029E-003  2.769284988451878E-003
2.804118305481326E-003  2.839389771701029E-003  2.875104898349343E-003  2.911269265987471E-003
2.947888525371433E-003  2.984968398335009E-003  3.022514678683791E-003  3.060533233100471E-003
3.099030002061526E-003  3.138011000765430E-003  3.177482320072535E-003  3.217450127456790E-003
3.257920667969413E-003  3.298900265214697E-003  3.340395322338087E-003  3.382412323026678E-003
3.424957832522313E-003  3.468038498647411E-003  3.511661052843702E-003  3.555832311224030E-003
3.600559175637384E-003  3.645848634747324E-003  3.691707765123981E-003  3.738143732349777E-003
3.785163792139066E-003  3.832775291471850E-003  3.880985669741769E-003  3.929802459918513E-003
3.979233289724863E-003  4.029285882828548E-003  4.079968060049069E-003  4.131287740579731E-003
4.183252943225030E-003  4.235871787653602E-003  4.289152495666944E-003  4.343103392484082E-003
4.397732908042407E-003  4.453049578314871E-003  4.509062046643747E-003  4.565779065091170E-003
4.623209495806662E-003  4.681362312411866E-003  4.740246601402692E-003  4.799871563569091E-003
4.860246515432715E-003  4.921380890702622E-003  4.983284241749330E-003  5.045966241097381E-003
5.109436682936700E-003  5.173705484652960E-003  5.238782688377182E-003  5.304678462554848E-003
5.371403103534741E-003  5.438967037177765E-003  5.507380820486014E-003  5.576655143252316E-003
5.646800829730545E-003  5.717828840326925E-003  5.789750273312619E-003  5.862576366557856E-003
5.936318499287873E-003  6.010988193860936E-003  6.086597117568742E-003  6.163157084459445E-003
6.240680057183636E-003  6.319178148863524E-003  6.398663624985639E-003  6.479148905317341E-003
6.560646565847429E-003  6.643169340751170E-003  6.726730124380037E-003  6.811341973276476E-003
6.897018108214023E-003  6.983771916263071E-003  7.071616952882631E-003  7.160566944038393E-003
7.250635788347446E-003  7.341837559249965E-003  7.434186507208200E-003  7.527697061933157E-003
7.622383834639259E-003  7.718261620327383E-003  7.815345400096610E-003  7.913650343485045E-003
8.013191810840096E-003  8.113985355718556E-003  8.216046727316878E-003  8.319391872932022E-003
8.424036940453246E-003  8.529998280885250E-003  8.637292450903061E-003  8.745936215439030E-003
8.855946550302411E-003  8.967340644831838E-003  9.080135904581215E-003  9.194349954039364E-003
9.310000639383883E-003  9.427106031269648E-003  9.545684427652395E-003  9.665754356647809E-003
9.787334579426578E-003  9.910444093145872E-003  1.003510213391767E-002  1.016132817981447E-002
1.028914195391275E-002  1.041856342737475E-002  1.054961282256901E-002  1.068231061623015E-002
1.081667754265841E-002  1.095273459695940E-002  1.109050303832469E-002  1.123000439335351E-002
1.137126045941642E-002  1.151429330806112E-002  1.165912528846122E-002  1.180577903090831E-002
1.195427745034803E-002  1.210464374996053E-002  1.225690142478605E-002  1.241107426539606E-002
1.256718636161056E-002  1.272526210626219E-002  1.288532619900768E-002  1.304740365018717E-002
1.321151978473214E-002  1.337770024612253E-002  1.354597100039352E-002  1.371635834019280E-002
1.388888888888890E-002  1.406358960473104E-002  1.424048778506152E-002  1.441961107058091E-002
1.460098744966701E-002  1.478464526274805E-002  1.497061320673100E-002  1.515892033948545E-002
1.534959608438400E-002  1.554267023489973E-002  1.573817295926148E-002  1.593613480516768E-002
1.613658670455949E-002  1.633955997845404E-002  1.654508634183831E-002  1.675319790862474E-002
1.696392719666903E-002  1.717730713285118E-002  1.739337105822035E-002  1.761215273320444E-002
1.783368634288530E-002  1.805800650234016E-002  1.828514826205031E-002  1.851514711337782E-002
1.874803899411116E-002  1.898386029408052E-002  1.922264786084378E-002  1.946443900544408E-002
1.970927150823969E-002  1.995718362480729E-002  2.020821409191947E-002  2.046240213359744E-002
2.071978746723988E-002  2.098041030982879E-002  2.124431138421360E-002  2.151153192547408E-002
2.178211368736346E-002  2.205609894883255E-002  2.233353052063588E-002  2.261445175202098E-002
2.289890653750179E-002  2.318693932371727E-002  2.347859511637628E-002  2.377391948728979E-002
2.407295858149161E-002  2.437575912444860E-002  2.468236842936165E-002  2.499283440455847E-002
2.530720556097930E-002  2.562553101975695E-002  2.594786051989199E-002  2.627424442602459E-002
2.660473373630412E-002  2.693938009035771E-002  2.727823577735900E-002  2.762135374419851E-002
2.796878760375663E-002  2.832059164328078E-002  2.867682083286788E-002  2.903753083405356E-002
2.940277800850939E-002  2.977261942684944E-002  3.014711287754783E-002  3.052631687596809E-002
3.091029067350651E-002  3.129909426685013E-002  3.169278840735145E-002  3.209143461052091E-002
3.249509516563878E-002  3.290383314548807E-002  3.331771241620970E-002  3.373679764728180E-002
3.416115432162432E-002  3.459084874583099E-002  3.502594806052985E-002  3.546652025087400E-002
3.591263415716454E-002  3.636435948560698E-002  3.682176681920288E-002  3.728492762877877E-002
3.775391428415342E-002  3.822880006544591E-002  3.870965917452571E-002  3.919656674660697E-002
3.968959886198840E-002  4.018883255794114E-002  4.069434584074587E-002  4.120621769788151E-002
4.172452811036715E-002  4.224935806525924E-002  4.278078956830601E-002  4.331890565676103E-002
4.386379041235790E-002  4.441552897444830E-002  4.497420755330503E-002  4.553991344359271E-002
4.611273503800763E-002  4.669276184108931E-002  4.728008448320584E-002  4.787479473471495E-002
4.847698552030337E-002  4.908675093350654E-002  4.970418625141084E-002  5.032938794954089E-002
5.096245371693398E-002  5.160348247140425E-002  5.225257437499878E-002  5.290983084964809E-002
5.357535459301356E-002  5.424924959453408E-002  5.493162115167471E-002  5.562257588637953E-002
5.632222176173161E-002  5.703066809882243E-002  5.774802559383347E-002  5.847440633533282E-002
5.920992382178916E-002  5.995469297930620E-002  6.070883017958000E-002  6.147245325808245E-002
6.224568153247315E-002  6.302863582124313E-002  6.382143846259293E-002  6.462421333354823E-002
6.543708586931589E-002  6.626018308288341E-002  6.709363358486502E-002  6.793756760359732E-002
6.879211700548775E-002  6.965741531561892E-002  7.053359773861227E-002  7.142080117975400E-002
7.231916426638682E-002  7.322882736957076E-002  7.414993262601638E-002  7.508262396029403E-002
7.602704710732225E-002  7.698334963513925E-002  7.795168096796055E-002  7.893219240952704E-002
7.992503716674630E-002  8.093037037363161E-002  8.194834911554194E-002  8.297913245372676E-002
8.402288145017985E-002  8.507975919280540E-002  8.614993082090094E-002  8.723356355096065E-002
8.833082670280328E-002  8.944189172602864E-002  9.056693222680716E-002  9.170612399500597E-002
9.285964503165657E-002  9.402767557676778E-002  9.521039813748863E-002  9.640799751662553E-002
9.762066084151801E-002  9.884857759327775E-002  1.000919396363954E-001  1.013509412487199E-001
1.026257791518146E-001  1.039166525416956E-001  1.052237631199562E-001  1.065473151252838E-001
1.078875153653719E-001  1.092445732492347E-001  1.106187008199275E-001  1.120101127876788E-001
1.134190265634397E-001  1.148456622928538E-001  1.162902428906565E-001  1.177529940755053E-001
1.192341444052486E-001  1.207339253126390E-001  1.222525711414946E-001  1.237903191833158E-001
1.253474097143629E-001  1.269240860331990E-001  1.285205944987069E-001  1.301371845685824E-001
1.317741088383129E-001  1.334316230806459E-001  1.351099862855540E-001  1.368094607007026E-001
1.385303118724268E-001  1.402728086872230E-001  1.420372234137640E-001  1.438238317454402E-001
1.456329128434386E-001  1.474647493803612E-001  1.493196275843939E-001  1.511978372840298E-001
1.530996719533556E-001  1.550254287579080E-001  1.569754086011054E-001  1.589499161712656E-001
1.609492599892138E-001  1.629737524564891E-001  1.650237099041584E-001  1.670994526422436E-001
1.692013050097705E-001  1.713295954254481E-001  1.734846564389835E-001  1.756668247830449E-001
1.778764414258756E-001  1.801138516245714E-001  1.823794049790281E-001  1.846734554865665E-001
1.869963615972458E-001  1.893484862698717E-001  1.917301970287097E-001  1.941418660209117E-001
1.965838700746640E-001  1.990565907580686E-001  2.015604144387629E-001  2.040957323442910E-001
2.066629406232340E-001  2.092624404071082E-001  2.118946378730440E-001  2.145599443072504E-001
2.172587761692802E-001  2.199915551571031E-001  2.227587082729955E-001  2.255606678902617E-001
2.283978718207925E-001  2.312707633834743E-001  2.341797914734589E-001  2.371254106323036E-001
2.401080811189951E-001  2.431282689818651E-001  2.461864461314118E-001  2.492830904140368E-001
2.524186856867093E-001  2.555937218925702E-001  2.588086951374863E-001  2.620641077675679E-001
2.653604684476619E-001  2.686982922408308E-001  2.720781006888334E-001  2.755004218936157E-001
2.789657905998288E-001  2.824747482783836E-001  2.860278432110561E-001  2.896256305761586E-001
2.932686725352865E-001  2.969575383211577E-001  3.006928043265565E-001  3.044750541943955E-001
3.083048789089118E-001  3.121828768880087E-001  3.161096540767602E-001  3.200858240420915E-001
3.241120080686489E-001  3.281888352558782E-001  3.323169426163216E-001  3.364969751751526E-001
3.407295860709634E-001  3.450154366578173E-001  3.493551966085885E-001  3.537495440195986E-001
3.581991655165704E-001  3.627047563619163E-001  3.672670205633722E-001  3.718866709840019E-001
3.765644294535820E-001  3.813010268813904E-001  3.860972033704122E-001  3.909537083329813E-001
3.958713006078791E-001  4.008507485789032E-001  4.058928302949299E-001  4.109983335914857E-001
4.161680562138476E-001  4.214028059416935E-001  4.267034007153185E-001  4.320706687634399E-001
4.375054487326104E-001  4.430085898182571E-001  4.485809518973707E-001  4.542234056628635E-001
4.599368327596156E-001  4.657221259222354E-001  4.715801891145495E-001  4.775119376708500E-001
4.835182984389174E-001  4.896002099248411E-001  4.957586224396652E-001  5.019944982478743E-001
5.083088117177501E-001  5.147025494736194E-001  5.211767105500141E-001  5.277323065477747E-001
5.343703617921132E-001  5.410919134926665E-001  5.478980119055632E-001  5.547897204975272E-001
5.617681161120474E-001  5.688342891376365E-001  5.759893436782052E-001  5.832343977255835E-001
5.905705833342056E-001  5.979990467979992E-001  6.055209488294935E-001  6.131374647411840E-001
6.208497846291786E-001  6.286591135591498E-001  6.365666717546319E-001  6.445736947876806E-001
6.526814337719348E-001  6.608911555581070E-001  6.692041429319283E-001  6.776216948145894E-001
6.861451264656975E-001  6.947757696887885E-001  7.035149730394259E-001  7.123641020359128E-001
7.213245393726593E-001  7.303976851362288E-001  7.395849570241062E-001  7.488877905662162E-001
7.583076393492262E-001  7.678459752436727E-001  7.775042886339466E-001  7.872840886511642E-001
7.971869034089756E-001  8.072142802423339E-001  8.173677859492696E-001  8.276490070357082E-001
8.380595499633611E-001  8.486010414007413E-001  8.592751284773326E-001  8.700834790409564E-001
8.810277819183798E-001  8.921097471791930E-001  9.033311064030141E-001  9.146936129500521E-001
9.261990422350723E-001  9.378491920048077E-001  9.496458826188632E-001  9.615909573341478E-001
9.736862825928877E-001  9.859337483142629E-001  9.983352681897093E-001  1.010892779981940E+000
1.023608245827720E+000  1.036483652544458E+000  1.049521011940648E+000  1.062722361130221E+000
1.076089762850846E+000  1.089625305786238E+000  1.103331104892519E+000  1.117209301728685E+000
1.131262064791224E+000  1.145491589852959E+000  1.159900100306129E+000  1.174489847509807E+000
1.189263111141676E+000  1.204222199554235E+000  1.219369450135484E+000  1.234707229674143E+000
1.250237934729471E+000  1.265963992005728E+000  1.281887858731360E+000  1.298012023042940E+000
1.314339004373946E+000  1.330871353848430E+000  1.347611654679631E+000  1.364562522573612E+000
1.381726606137970E+000  1.399106587295682E+000  1.416705181704164E+000  1.434525139179595E+000
1.452569244126587E+000  1.470840315973249E+000  1.489341209611730E+000  1.508074815844301E+000
1.527044061835050E+000  1.546251911567255E+000  1.565701366306517E+000  1.585395465069709E+000
1.605337285099830E+000  1.625529942346832E+000  1.645976591954491E+000  1.666680428753409E+000
1.687644687760208E+000  1.708872644683009E+000  1.730367616433270E+000  1.752132961644058E+000
1.774172081194846E+000  1.796488418742902E+000  1.819085461261371E+000  1.841966739584120E+000
1.865135828957438E+000  1.888596349598680E+000  1.912351967261927E+000  1.936406393810768E+000
1.960763387798292E+000  1.985426755054361E+000  2.010400349280292E+000  2.035688072650989E+000
2.061293876424677E+000  2.087221761560292E+000  2.113475779342634E+000  2.140060032015400E+000
2.166978673422154E+000  2.194235909655383E+000  2.221835999713704E+000  2.249783256167338E+000
2.278082045831970E+000  2.306736790451057E+000  2.335751967386744E+000  2.365132110319460E+000
2.394881809956310E+000  2.425005714748393E+000  2.455508531617117E+000  2.486395026689678E+000
2.517670026043769E+000  2.549338416461667E+000  2.581405146193807E+000  2.613875225731951E+000
2.646753728592086E+000  2.680045792107175E+000  2.713756618229874E+000  2.747891474345355E+000
2.782455694094331E+000  2.817454678206459E+000  2.852893895344213E+000  2.888778882957370E+000
2.925115248148257E+000  2.961908668547862E+000  2.999164893202976E+000  3.036889743474502E+000
3.075089113947044E+000  3.113768973349960E+000  3.152935365489974E+000  3.192594410195542E+000
3.232752304273087E+000  3.273415322475258E+000  3.314589818481384E+000  3.356282225890233E+000
3.398499059225286E+000  3.441246914952643E+000  3.484532472511730E+000  3.528362495358987E+000
3.572743832024652E+000  3.617683417182875E+000  3.663188272735267E+000  3.709265508908085E+000
3.755922325363233E+000  3.803166012323202E+000  3.851003951710197E+000  3.899443618299577E+000
3.948492580887791E+000  3.998158503475043E+000  4.048449146462780E+000  4.099372367866285E+000
4.150936124542508E+000  4.203148473433331E+000  4.256017572824504E+000  4.309551683620366E+000
4.363759170634646E+000  4.418648503897473E+000  4.474228259978840E+000  4.530507123328722E+000
4.587493887634013E+000  4.645197457192574E+000  4.703626848304549E+000  4.762791190681172E+000
4.822699728871316E+000  4.883361823705956E+000  4.944786953760826E+000  5.006984716837469E+000
5.069964831462901E+000  5.133737138408179E+000  5.198311602226003E+000  5.263698312807721E+000
5.329907486959892E+000  5.396949470000678E+000  5.464834737376335E+000  5.533573896297999E+000
5.603177687399104E+000  5.673656986413619E+000  5.745022805875400E+000  5.817286296838944E+000
5.890458750621730E+000  5.964551600568532E+000  6.039576423837898E+000  6.115544943211096E+000
6.192469028923849E+000  6.270360700521049E+000  6.349232128734852E+000  6.429095637386383E+000
6.509963705311347E+000  6.591848968309895E+000  6.674764221120963E+000  6.758722419421495E+000
6.843736681850789E+000  6.929820292060306E+000  7.016986700789293E+000  7.105249527966447E+000
7.194622564838089E+000  7.285119776123062E+000  7.376755302194738E+000  7.469543461290513E+000
7.563498751749020E+000  7.658635854275545E+000  7.754969634235916E+000  7.852515143979239E+000
7.951287625189881E+000  8.051302511268979E+000  8.152575429745964E+000  8.255122204720392E+000
8.358958859334475E+000  8.464101618276773E+000  8.570566910317273E+000  8.678371370874466E+000
8.787531844614641E+000  8.898065388083900E+000  9.009989272373311E+000  9.123320985817497E+000
9.238078236727254E+000  9.354278956156520E+000  9.471941300704104E+000  9.591083655350747E+000
9.711724636331747E+000  9.833883094045834E+000  9.957578116000555E+000  1.008282902979474E+001
1.020965540613852E+001  1.033807706191121E+001  1.046811406325781E+001  1.059978672872433E+001
1.073311563243264E+001  1.086812160729522E+001  1.100482574827031E+001  1.114324941565805E+001
1.128341423843811E+001  1.142534211764920E+001  1.156905522981122E+001  1.171457603039033E+001
1.186192725730767E+001  1.201113193449225E+001  1.216221337547842E+001  1.231519518704873E+001
1.247010127292248E+001  1.262695583749074E+001  1.278578338959835E+001  1.294660874637345E+001
1.310945703710526E+001  1.327435370717052E+001  1.344132452200941E+001  1.361039557115145E+001
1.378159327229203E+001  1.395494437542029E+001  1.413047596699877E+001  1.430821547419576E+001
1.448819066917089E+001  1.467042967341452E+001  1.485496096214185E+001  1.504181336874217E+001
1.523101608928416E+001  1.542259868707785E+001  1.561659109729390E+001  1.581302363164111E+001
1.601192698310262E+001  1.621333223073175E+001  1.641727084450822E+001  1.662377469025533E+001
1.683287603461913E+001  1.704460755011009E+001  1.725900232020829E+001  1.747609384453273E+001
1.769591604407575E+001  1.791850326650329E+001  1.814389029152171E+001  1.837211233631220E+001
1.860320506103360E+001  1.883720457439428E+001  1.907414743929432E+001  1.931407067853840E+001
1.955701178062079E+001  1.980300870558295E+001  2.005209989094487E+001  2.030432425771108E+001
2.055972121645203E+001  2.081833067346213E+001  2.108019303699518E+001  2.134534922357822E+001
2.161384066440493E+001  2.188570931180914E+001  2.216099764582015E+001  2.243974868080021E+001
2.272200597216565E+001  2.300781362319255E+001  2.329721629190783E+001  2.359025919806727E+001
2.388698813022117E+001  2.418744945286887E+001  2.449169011370331E+001  2.479975765094676E+001
2.511170020077868E+001  2.542756650485711E+001  2.574740591793472E+001  2.607126841557049E+001
2.639920460193862E+001  2.673126571773540E+001  2.706750364818576E+001  2.740797093115042E+001
2.775272076533498E+001  2.810180701860251E+001  2.845528423639027E+001  2.881320765023268E+001
2.917563318639138E+001  2.954261747459371E+001  2.991421785688139E+001  3.029049239657015E+001
3.067149988732237E+001  3.105729986233364E+001  3.144795260363493E+001  3.184351915151192E+001
3.224406131404248E+001  3.264964167675441E+001  3.306032361240455E+001  3.347617129088085E+001
3.389724968922918E+001  3.432362460180594E+001  3.475536265055868E+001  3.519253129543592E+001