<UPF version="2.0.1">
<PP_INFO>
Generated in analytical, separable form
Author: Goedecker/Hartwigsen/Hutter/Teter
Generation date: Phys.Rev.B58, 3641 (1998); B54, 1703 (1996)
Pseudopotential type: NC
Element: In
Functional: SLA-PW-PBX-PBC

Suggested minimum cutoff for wavefunctions:   0. Ry
Suggested minimum cutoff for charge density:   0. Ry
The Pseudo was generated with a Non-Relativistic Calculation
Local Potential: unknown format, L component and cutoff radius: -3   0.0000

Valence configuration:
nl pn  l   occ       Rcut    Rcut US       E pseu

Generation configuration: not available.
Converted from CPMD format using cpmd2upf v.5.0.1 - PG 10Jul2012
Contains atomic orbitals generated by ld1.x - use with care
</PP_INFO>
<!--                               -->
<!-- END OF HUMAN READABLE SECTION -->
<!--                               -->
<PP_HEADER generated="Generated in analytical, separable form" author="Goedecker/Hartwigsen/Hutter/Teter" date="Phys.Rev.B58, 3641 (1998); B54, 1703 (1996)" comment="Contains atomic orbitals generated by ld1.x - use with care" element="In" pseudo_type="NC" relativistic="no" is_ultrasoft="F" is_paw="F" is_coulomb="F" has_so="F" has_wfc="F" has_gipaw="F" paw_as_gipaw="F" core_correction="F" functional="SLA-PW-PBX-PBC" z_valence="1.300000000000000E+001" total_psenergy="0.000000000000000E+000" wfc_cutoff="0.000000000000000E+000" rho_cutoff="0.000000000000000E+000" l_max="2" l_max_rho="0" l_local="-3" mesh_size="1241" number_of_wfc=" 3" number_of_proj="7"/>
<PP_MESH dx="1.250000000000000E-002" mesh="1241" xmin="-7.000000000000000E+000" rmax="1.003014049040640E+002" zmesh="4.900000000000000E+001">
<PP_R type="real" size="1241" columns="4">
1.860983603172482E-005  1.884391895242903E-005  1.908094627380780E-005  1.932095503186233E-005
1.956398272844938E-005  1.981006733714100E-005  2.005924730915793E-005  2.031156157937778E-005
2.056704957241858E-005  2.082575120879907E-005  2.108770691117627E-005  2.135295761066160E-005
2.162154475321653E-005  2.189351030612851E-005  2.216889676456853E-005  2.244774715823098E-005
2.273010505805721E-005  2.301601458304352E-005  2.330552040713485E-005  2.359866776620526E-005
2.389550246512601E-005  2.419607088492271E-005  2.450041999002246E-005  2.480859733559214E-005
2.512065107496900E-005  2.543662996718469E-005  2.575658338458397E-005  2.608056132053928E-005
2.640861439726220E-005  2.674079387371347E-005  2.707715165361207E-005  2.741774029354544E-005
2.776261301118151E-005  2.811182369358402E-005  2.846542690563263E-005  2.882347789854860E-005
2.918603261852805E-005  2.955314771548358E-005  2.992488055189598E-005  3.030128921177728E-005
3.068243250974638E-005  3.106837000021901E-005  3.145916198671327E-005  3.185486953127209E-005
3.225555446400443E-005  3.266127939274621E-005  3.307210771284300E-005  3.348810361705563E-005
3.390933210559049E-005  3.433585899625594E-005  3.476775093474641E-005  3.520507540505596E-005
3.564790074002285E-005  3.609629613200655E-005  3.655033164369938E-005  3.701007821907378E-005
3.747560769446749E-005  3.794699280980819E-005  3.842430721997913E-005  3.890762550632809E-005
3.939702318832060E-005  3.989257673534015E-005  4.039436357863667E-005  4.090246212342529E-005
4.141695176113743E-005  4.193791288182569E-005  4.246542688672509E-005  4.299957620097213E-005
4.354044428648384E-005  4.408811565499907E-005  4.464267588128337E-005  4.520421161650035E-005
4.577281060175109E-005  4.634856168178381E-005  4.693155481887625E-005  4.752188110689212E-005
4.811963278551496E-005  4.872490325466068E-005  4.933778708907150E-005  4.995838005309353E-005
5.058677911563997E-005  5.122308246534283E-005  5.186738952589507E-005  5.251980097158571E-005
5.318041874303058E-005  5.384934606310044E-005  5.452668745305001E-005  5.521254874884952E-005
5.590703711772180E-005  5.661026107488752E-005  5.732233050052067E-005  5.804335665691770E-005
5.877345220588251E-005  5.951273122632995E-005  6.026130923211115E-005  6.101930319006246E-005
6.178683153828195E-005  6.256401420463558E-005  6.335097262549609E-005  6.414782976471796E-005
6.495471013285034E-005  6.577173980659237E-005  6.659904644849282E-005  6.743675932689759E-005
6.828500933614841E-005  6.914392901703493E-005  7.001365257750479E-005  7.089431591363374E-005
7.178605663085976E-005  7.268901406548427E-005  7.360332930644348E-005  7.452914521735395E-005
7.546660645883535E-005  7.641585951111389E-005  7.737705269691037E-005  7.835033620461559E-005
7.933586211175777E-005  8.033378440876497E-005  8.134425902302633E-005  8.236744384325629E-005
8.340349874416462E-005  8.445258561143749E-005  8.551486836703223E-005  8.659051299479062E-005
8.767968756637428E-005  8.878256226752591E-005  8.989930942466135E-005  9.103010353179596E-005
9.217512127780951E-005  9.333454157405455E-005  9.450854558231114E-005  9.569731674309410E-005
9.690104080431587E-005  9.811990585031001E-005  9.935410233121965E-005  1.006038230927562E-004
1.018692634063310E-004  1.031506209995676E-004  1.044480960871971E-004  1.057618914023413E-004
1.070922122281915E-004  1.084392664300832E-004  1.098032644879759E-004  1.111844195293414E-004
1.125829473624647E-004  1.139990665101653E-004  1.154329982439410E-004  1.168849666185425E-004
1.183551985069826E-004  1.198439236359847E-004  1.213513746218795E-004  1.228777870069502E-004
1.244233992962375E-004  1.259884529948063E-004  1.275731926454808E-004  1.291778658670561E-004
1.308027233929874E-004  1.324480191105691E-004  1.341140101006045E-004  1.358009566775750E-004
1.375091224303157E-004  1.392387742632006E-004  1.409901824378476E-004  1.427636206153473E-004
1.445593658990228E-004  1.463776988777286E-004  1.482189036696917E-004  1.500832679669068E-004
1.519710830800887E-004  1.538826439841892E-004  1.558182493644890E-004  1.577782016632668E-004
1.597628071270566E-004  1.617723758545001E-004  1.638072218447991E-004  1.658676630467798E-004
1.679540214085720E-004  1.700666229279145E-004  1.722057977030926E-004  1.743718799845171E-004
1.765652082269517E-004  1.787861251423965E-004  1.810349777536379E-004  1.833121174484719E-004
1.856179000346085E-004  1.879526857952682E-004  1.903168395454761E-004  1.927107306890655E-004
1.951347332763982E-004  1.975892260628099E-004  2.000745925677924E-004  2.025912211349186E-004
2.051395049925222E-004  2.077198423151404E-004  2.103326362857294E-004  2.129782951586634E-004
2.156572323235236E-004  2.183698663696924E-004  2.211166211517584E-004  2.238979258557444E-004
2.267142150661695E-004  2.295659288339523E-004  2.324535127451710E-004  2.353774179906864E-004
2.383381014366417E-004  2.413360256958493E-004  2.443716592000739E-004  2.474454762732265E-004
2.505579572054786E-004  2.537095883283078E-004  2.569008620904898E-004  2.601322771350422E-004
2.634043383771402E-004  2.667175570830100E-004  2.700724509498149E-004  2.734695441865475E-004
2.769093675959374E-004  2.803924586573907E-004  2.839193616109721E-004  2.874906275424434E-004
2.911068144693725E-004  2.947684874283240E-004  2.984762185631474E-004  3.022305872143758E-004
3.060321800097491E-004  3.098815909558764E-004  3.137794215310496E-004  3.177262807792263E-004
3.217227854051939E-004  3.257695598709308E-004  3.298672364931811E-004  3.340164555422536E-004
3.382178653420664E-004  3.424721223714484E-004  3.467798913667156E-004  3.511418454255384E-004
3.555586661121125E-004  3.600310435636564E-004  3.645596765982459E-004  3.691452728240061E-004
3.737885487496771E-004  3.784902298965691E-004  3.832510509119267E-004  3.880717556837195E-004
3.929530974568762E-004  3.978958389509795E-004  4.029007524794445E-004  4.079686200701924E-004
4.131002335878447E-004  4.182963948574543E-004  4.235579157897907E-004  4.288856185082047E-004
4.342803354770852E-004  4.397429096319341E-004  4.452741945110770E-004  4.508750543890295E-004
4.565463644115429E-004  4.622890107323463E-004  4.681038906516108E-004  4.739919127561546E-004
4.799539970614104E-004  4.859910751551812E-004  4.921040903432015E-004  4.982939977965313E-004
5.045617647008040E-004  5.109083704073500E-004  5.173348065862234E-004  5.238420773811517E-004
5.304311995664357E-004  5.371032027058228E-004  5.438591293133772E-004  5.507000350163773E-004
5.576269887202565E-004  5.646410727756240E-004  5.717433831473841E-004  5.789350295859816E-004
5.862171358008047E-004  5.935908396357648E-004  6.010572932470875E-004  6.086176632833410E-004
6.162731310677245E-004  6.240248927826550E-004  6.318741596566713E-004  6.398221581536916E-004
6.478701301646521E-004  6.560193332015524E-004  6.642710405939476E-004  6.726265416879054E-004
6.810871420474710E-004  6.896541636586645E-004  6.983289451360415E-004  7.071128419318576E-004
7.160072265478579E-004  7.250134887497340E-004  7.341330357842790E-004  7.433672925992701E-004
7.527177020661228E-004  7.621857252053392E-004  7.717728414147976E-004  7.814805487009114E-004
7.913103639126941E-004  8.012638229787718E-004  8.113424811473738E-004  8.215479132293439E-004
8.318817138442087E-004  8.423454976693377E-004  8.529408996922432E-004  8.636695754660473E-004
8.745332013681671E-004  8.855334748622526E-004  8.966721147634167E-004  9.079508615068066E-004
9.193714774195474E-004  9.309357469961103E-004  9.426454771771453E-004  9.545024976318159E-004
9.665086610436925E-004  9.786658434002341E-004  9.909759442859177E-004  1.003440887179053E-003
1.016062619752325E-003  1.028843114177130E-003  1.041784367431723E-003  1.054888401613253E-003
1.068157264253723E-003  1.081593028639915E-003  1.095197794137350E-003  1.108973686518316E-003
1.122922858294025E-003  1.137047489050947E-003  1.151349785791375E-003  1.165831983278271E-003
1.180496344384459E-003  1.195345160446195E-003  1.210380751621199E-003  1.225605467251183E-003
1.241021686228938E-003  1.256631817370046E-003  1.272438299789254E-003  1.288443603281600E-003
1.304650228708318E-003  1.321060708387603E-003  1.337677606490293E-003  1.354503519440522E-003
1.371541076321424E-003  1.388792939285923E-003  1.406261803972706E-003  1.423950399927422E-003
1.441861491029175E-003  1.459997875922393E-003  1.478362388454112E-003  1.496957898116778E-003
1.515787310496610E-003  1.534853567727600E-003  1.554159648951232E-003  1.573708570781974E-003
1.593503387778636E-003  1.613547192921647E-003  1.633843118096338E-003  1.654394334582312E-003
1.675204053548956E-003  1.696275526557195E-003  1.717612046067559E-003  1.739216945954629E-003
1.761093602027970E-003  1.783245432559600E-003  1.805675898818108E-003  1.828388505609484E-003
1.851386801824745E-003  1.874674380994468E-003  1.898254881850276E-003  1.922131988893402E-003
1.946309432970401E-003  1.970790991856099E-003  1.995580490843879E-003  2.020681803343395E-003
2.046098851485791E-003  2.071835606736553E-003  2.097896090516049E-003  2.124284374827892E-003
2.151004582895192E-003  2.178060889804820E-003  2.205457523159782E-003  2.233198763739774E-003
2.261288946170080E-003  2.289732459598853E-003  2.318533748382934E-003  2.347697312782295E-003
2.377227709663203E-003  2.407129553210255E-003  2.437407515647340E-003  2.468066327967688E-003
2.499110780673101E-003  2.530545724522474E-003  2.562376071289740E-003  2.594606794531340E-003
2.627242930363352E-003  2.660289578248402E-003  2.693751901792454E-003  2.727635129551642E-003
2.761944555849240E-003  2.796685541602908E-003  2.831863515162353E-003  2.867483973157513E-003
2.903552481357421E-003  2.940074675539863E-003  2.977056262371988E-003  3.014503020301977E-003
3.052420800461941E-003  3.090815527582175E-003  3.129693200916908E-003  3.169059895181694E-003
3.208921761502605E-003  3.249285028377353E-003  3.290156002648506E-003  3.331541070488948E-003
3.373446698399726E-003  3.415879434220461E-003  3.458845908152452E-003  3.502352833794669E-003
3.546407009192759E-003  3.591015317901256E-003  3.636184730059153E-003  3.681922303478997E-003
3.728235184749688E-003  3.775130610353150E-003  3.822615907795043E-003  3.870698496749701E-003
3.919385890219473E-003  3.968685695708645E-003  4.018605616412124E-003  4.069153452419086E-003
4.120337101931744E-003  4.172164562499471E-003  4.224643932268422E-003  4.277783411246895E-003
4.331591302586595E-003  4.386076013880013E-003  4.441246058474142E-003  4.497110056800692E-003
4.553676737723058E-003  4.610954939900223E-003  4.668953613167806E-003  4.727681819936508E-003
4.787148736608116E-003  4.847363655009351E-003  4.908335983843719E-003  4.970075250161649E-003
5.032591100849113E-003  5.095893304134971E-003  5.159991751117276E-003  5.224896457308778E-003
5.290617564201870E-003  5.357165340853211E-003  5.424550185488299E-003  5.492782627126202E-003
5.561873327224749E-003  5.631833081346392E-003  5.702672820845049E-003  5.774403614574142E-003
5.847036670616125E-003  5.920583338033784E-003  5.995055108643529E-003  6.070463618811034E-003
6.146820651269432E-003  6.224138136960395E-003  6.302428156898366E-003  6.381702944058243E-003
6.461974885286803E-003  6.543256523238178E-003  6.625560558333669E-003  6.708899850746209E-003
6.793287422409789E-003  6.878736459054171E-003  6.965260312265179E-003  7.052872501570910E-003
7.141586716554194E-003  7.231416818991609E-003  7.322376845019423E-003  7.414481007326763E-003
7.507743697376376E-003  7.602179487653328E-003  7.697803133941980E-003  7.794629577631614E-003
7.892673948051048E-003  7.991951564832634E-003  8.092477940305980E-003  8.194268781921771E-003
8.297339994706106E-003  8.401707683745686E-003  8.507388156704257E-003  8.614397926370726E-003
8.722753713239323E-003  8.832472448122191E-003  8.943571274794886E-003  9.056067552675103E-003
9.169978859535138E-003  9.285322994248443E-003  9.402117979570733E-003  9.520382064956092E-003
9.640133729408466E-003  9.761391684369066E-003  9.884174876640053E-003  1.000850249134503E-002
1.013439395492673E-002  1.026186893818247E-002  1.039094735933774E-002  1.052164938715846E-002
1.065399544410237E-002  1.078800620951015E-002  1.092370262283654E-002  1.106110588692219E-002
1.120023747130667E-002  1.134111911558309E-002  1.148377283279502E-002  1.162822091287598E-002
1.177448592613239E-002  1.192259072677012E-002  1.207255845646562E-002  1.222441254798175E-002
1.237817672882926E-002  1.253387502497424E-002  1.269153176459225E-002  1.285117158186960E-002
1.301281942085252E-002  1.317650053934474E-002  1.334224051285403E-002  1.351006523858845E-002
1.368000093950285E-002  1.385207416839622E-002  1.402631181206066E-002  1.420274109548249E-002
1.438138958609620E-002  1.456228519809189E-002  1.474545619677699E-002  1.493093120299270E-002
1.511873919758609E-002  1.530890952593841E-002  1.550147190255038E-002  1.569645641568512E-002
1.589389353206950E-002  1.609381410165463E-002  1.629624936243627E-002  1.650123094533577E-002
1.670879087914249E-002  1.691896159551838E-002  1.713177593406546E-002  1.734726714745711E-002
1.756546890663384E-002  1.778641530606445E-002  1.801014086907338E-002  1.823668055323502E-002
1.846606975583592E-002  1.869834431940567E-002  1.893354053731741E-002  1.917169515945870E-002
1.941284539797376E-002  1.965702893307800E-002  1.990428391894557E-002  2.015464898967106E-002
2.040816326530613E-002  2.066486635797214E-002  2.092479837804958E-002  2.118799994044542E-002
2.145451217093928E-002  2.172437671260938E-002  2.199763573233943E-002  2.227433192740719E-002
2.255450853215608E-002  2.283820932475063E-002  2.312547863401687E-002  2.341636134636883E-002
2.371090291282211E-002  2.400914935609573E-002  2.431114727780323E-002  2.461694386573431E-002
2.492658690122796E-002  2.524012476663847E-002  2.555760645289520E-002  2.587908156715755E-002
2.620460034056616E-002  2.653421363609166E-002  2.686797295648208E-002  2.720593045231027E-002
2.754813893012252E-002  2.789465186068973E-002  2.824552338736228E-002  2.860080833453008E-002
2.896056221618893E-002  2.932484124461479E-002  2.969370233914698E-002  3.006720313508196E-002
3.044540199267900E-002  3.082835800627904E-002  3.121613101353836E-002  3.160878160477824E-002
3.200637113245244E-002  3.240896172073355E-002  3.281661627522008E-002  3.322939849276552E-002
3.364737287143120E-002  3.407060472056415E-002  3.449916017100188E-002  3.493310618540541E-002
3.537251056872236E-002  3.581744197878162E-002  3.626796993702121E-002  3.672416483935121E-002
3.718609796715326E-002  3.765384149841838E-002  3.812746851902497E-002  3.860705303415858E-002
3.909266997987545E-002  3.958439523481132E-002  4.008230563203771E-002  4.058647897106720E-002
4.109699403000974E-002  4.161393057788196E-002  4.213736938707117E-002  4.266739224595625E-002
4.320408197168726E-002  4.374752242312571E-002  4.429779851394783E-002  4.485499622591230E-002
4.541920262229528E-002  4.599050586149407E-002  4.656899521080213E-002  4.715476106035725E-002
4.774789493726515E-002  4.834848951990083E-002  4.895663865238978E-002  4.957243735927121E-002
5.019598186034593E-002  5.082736958571085E-002  5.146669919098264E-002  5.211407057271282E-002
5.276958488399688E-002  5.343334455027964E-002  5.410545328535935E-002  5.478601610759330E-002
5.547513935630707E-002  5.617293070841031E-002  5.687949919522146E-002  5.759495521950412E-002
5.831941057271766E-002  5.905297845248494E-002  5.979577348027965E-002  6.054791171933609E-002
6.130951069278438E-002  6.208068940201358E-002  6.286156834526598E-002  6.365226953646518E-002
6.445291652428099E-002  6.526363441143423E-002  6.608454987424413E-002  6.691579118242194E-002
6.775748821911325E-002  6.860977250119246E-002  6.947277719981267E-002  7.034663716121380E-002
7.123148892779271E-002  7.212747075943819E-002  7.303472265513429E-002  7.395338637483559E-002
7.488360546161726E-002  7.582552526410420E-002  7.677929295918187E-002  7.774505757499311E-002
7.872297001422400E-002  7.971318307768273E-002  8.071585148817507E-002  8.173113191468014E-002
8.275918299683013E-002  8.380016536969825E-002  8.485424168889816E-002  8.592157665599924E-002
8.700233704426162E-002  8.809669172469482E-002  8.920481169244408E-002  9.032687009350890E-002
9.146304225179729E-002  9.261350569652051E-002  9.377844018993246E-002  9.495802775541781E-002
9.615245270593355E-002  9.736190167280827E-002  9.858656363490369E-002  9.982662994814301E-002
1.010822943754106E-001  1.023537531168278E-001  1.036412048404099E-001  1.049448507131079E-001
1.062648944322419E-001  1.076015422573285E-001  1.089550030423098E-001  1.103254882681871E-001
1.117132120760653E-001  1.131183913006128E-001  1.145412455039420E-001  1.159819970099173E-001
1.174408709388925E-001  1.189180952428873E-001  1.204139007412045E-001  1.219285211564965E-001
1.234621931512847E-001  1.250151563649385E-001  1.265876534511197E-001  1.281799301156973E-001
1.297922351551395E-001  1.314248204953890E-001  1.330779412312268E-001  1.347518556661312E-001
1.364468253526382E-001  1.381631151332098E-001  1.399009931816159E-001  1.416607310448375E-001
1.434426036854959E-001  1.452468895248163E-001  1.470738704861321E-001  1.489238320389354E-001
1.507970632434827E-001  1.526938567959609E-001  1.546145090742214E-001  1.565593201840905E-001
1.585285940062608E-001  1.605226382437734E-001  1.625417644700975E-001  1.645862881778138E-001
1.666565288279113E-001  1.687528098997035E-001  1.708754589413728E-001  1.730248076211506E-001
1.752011917791407E-001  1.774049514797961E-001  1.796364310650533E-001  1.818959792081376E-001
1.841839489680434E-001  1.865006978447006E-001  1.888465878348347E-001  1.912219854885293E-001
1.936272619665006E-001  1.960627930980920E-001  1.985289594399977E-001  2.010261463357263E-001
2.035547439758107E-001  2.061151474587767E-001  2.087077568528777E-001  2.113329772586060E-001
2.139912188719914E-001  2.166828970486941E-001  2.194084323689053E-001  2.221682507030642E-001
2.249627832784001E-001  2.277924667463137E-001  2.306577432506039E-001  2.335590604965536E-001
2.364968718208857E-001  2.394716362625962E-001  2.424838186346817E-001  2.455338895967661E-001
2.486223257286424E-001  2.517496096047400E-001  2.549162298695268E-001  2.581226813138619E-001
2.613694649523070E-001  2.646570881014110E-001  2.679860644589801E-001  2.713569141843426E-001
2.747701639796264E-001  2.782263471720564E-001  2.817260037972878E-001  2.852696806837886E-001
2.888579315382818E-001  2.924913170322640E-001  2.961704048896107E-001  2.998957699752847E-001
3.036679943851601E-001  3.074876675369754E-001  3.113553862624320E-001  3.152717549004495E-001
3.192373853915955E-001  3.232528973737026E-001  3.273189182786873E-001  3.314360834305887E-001
3.356050361448380E-001  3.398264278287786E-001  3.441009180834498E-001  3.484291748066502E-001
3.528118742972990E-001  3.572497013611080E-001  3.617433494175847E-001  3.662935206083806E-001
3.709009259070014E-001  3.755662852298990E-001  3.802903275489595E-001  3.850737910054060E-001
3.899174230251359E-001  3.948219804355065E-001  3.997882295835919E-001  4.048169464559251E-001
4.099089167997484E-001  4.150649362457882E-001  4.202858104325721E-001  4.255723551323146E-001
4.309253963783801E-001  4.363457705943541E-001  4.418343247247361E-001  4.473919163672749E-001
4.530194139069724E-001  4.587176966517679E-001  4.644876549699334E-001  4.703301904291957E-001
4.762462159376066E-001  4.822366558861883E-001  4.883024462933704E-001  4.944445349512447E-001
5.006638815736605E-001  5.069614579461805E-001  5.133382480779261E-001  5.197952483553285E-001
5.263334676978179E-001  5.329539277154689E-001  5.396576628686286E-001  5.464457206295538E-001
5.533191616460797E-001  5.602790599073493E-001  5.673265029116261E-001  5.744625918362174E-001
5.816884417095366E-001  5.890051815853272E-001  5.964139547190807E-001  6.039159187466728E-001
6.115122458652454E-001  6.192041230163660E-001  6.269927520714884E-001  6.348793500197485E-001
6.428651491581214E-001  6.509513972839697E-001  6.591393578900142E-001  6.674303103617586E-001
6.758255501773944E-001  6.843263891102235E-001  6.929341554336238E-001  7.016501941285959E-001
7.104758670939194E-001  7.194125533589503E-001  7.284616492991000E-001  7.376245688540194E-001
7.469027437485308E-001  7.562976237163387E-001  7.658106767265513E-001  7.754433892130568E-001
7.851972663067786E-001  7.950738320708568E-001  8.050746297387869E-001  8.152012219555501E-001
8.254551910217840E-001  8.358381391410168E-001  8.463516886700158E-001  8.569974823722859E-001
8.677771836747511E-001  8.786924769276723E-001  8.897450676678271E-001  9.009366828850052E-001
9.122690712918542E-001  9.237440035971181E-001  9.353632727823162E-001  9.471286943818980E-001
9.590421067669246E-001  9.711053714323205E-001  9.833203732877314E-001  9.956890209520498E-001
1.008213247051637E+000  1.020895008522301E+000  1.033736286915075E+000  1.046739088705831E+000
1.059905445608806E+000  1.073237414894050E+000  1.086737079708891E+000  1.100406549403420E+000
1.114247959860087E+000  1.128263473827438E+000  1.142455281258044E+000  1.156825599650690E+000
1.171376674396862E+000  1.186110779131593E+000  1.201030216088723E+000  1.216137316460632E+000
1.231434440762490E+000  1.246923979201089E+000  1.262608352048325E+000  1.278490010019365E+000
1.294571434655579E+000  1.310855138712284E+000  1.327343666551368E+000  1.344039594538852E+000
1.360945531447453E+000  1.378064118864207E+000  1.395398031603228E+000  1.412949978123646E+000
1.430722700952815E+000  1.448718977114835E+000  1.466941618564471E+000  1.485393472626524E+000
1.504077422440732E+000  1.522996387412265E+000  1.542153323667891E+000  1.561551224517875E+000
1.581193120923692E+000  1.601082081971615E+000  1.621221215352274E+000  1.641613667846231E+000
1.662262625815676E+000  1.683171315702307E+000  1.704343004531454E+000  1.725781000422573E+000
1.747488653106136E+000  1.769469354447039E+000  1.791726538974589E+000  1.814263684419150E+000
1.837084312255549E+000  1.860191988253315E+000  1.883590323033834E+000  1.907282972634524E+000
1.931273639080085E+000  1.955566070960958E+000  1.980164064019050E+000  2.005071461740818E+000
2.030292155957834E+000  2.055830087454880E+000  2.081689246585710E+000  2.107873673896548E+000
2.134387460757433E+000  2.161234750001509E+000  2.188419736572338E+000  2.215946668179381E+000
2.243819845961706E+000  2.272043625160048E+000  2.300622415797331E+000  2.329560683367736E+000
2.358862949534444E+000  2.388533792836161E+000  2.418577849402517E+000  2.448999813678479E+000
2.479804439157856E+000  2.510996539126054E+000  2.542580987412152E+000  2.574562719150452E+000
2.606946731551611E+000  2.639738084683448E+000  2.672941902261607E+000  2.706563372450136E+000
2.740607748672153E+000  2.775080350430714E+000  2.809986564139974E+000  2.845331843966843E+000
2.881121712683204E+000  2.917361762528857E+000  2.954057656085327E+000  2.991215127160636E+000
3.028839981685240E+000  3.066938098619204E+000  3.105515430870808E+000  3.144578006226709E+000
3.184131928293778E+000  3.224183377452808E+000  3.264738611824218E+000  3.305803968245885E+000
3.347385863263303E+000  3.389490794132166E+000  3.432125339833584E+000  3.475296162102064E+000
3.519010006466415E+000  3.563273703303761E+000  3.608094168906785E+000  3.653478406564425E+000
3.699433507656150E+000  3.745966652760000E+000  3.793085112774575E+000  3.840796250055112E+000
3.889107519563881E+000  3.938026470035032E+000  3.987560745154101E+000  4.037718084752359E+000
4.088506326016160E+000  4.139933404711532E+000  4.192007356424150E+000  4.244736317814911E+000
4.298128527891317E+000  4.352192329294818E+000  4.406936169604373E+000  4.462368602656412E+000
4.518498289881371E+000  4.575334001657083E+000  4.632884618679145E+000  4.691159133348552E+000
4.750166651176781E+000  4.809916392208543E+000  4.870417692462442E+000  4.931680005389730E+000
4.993712903351441E+000  5.056526079114088E+000  5.120129347364175E+000  5.184532646241776E+000
5.249746038893367E+000  5.315779715044225E+000  5.382643992590597E+000  5.450349319211880E+000
5.518906274003117E+000  5.588325569127971E+000  5.658618051492534E+000  5.729794704440194E+000
5.801866649467774E+000  5.874845147963328E+000  5.948741602965718E+000  6.023567560946378E+000
6.099334713613481E+000  6.176054899738772E+000  6.253740107007435E+000  6.332402473891151E+000
6.412054291544785E+000  6.492708005726899E+000  6.574376218744419E+000  6.657071691421796E+000
6.740807345094876E+000  6.825596263629905E+000  6.911451695467909E+000  6.998387055694783E+000
7.086415928137444E+000  7.175552067486302E+000  7.265809401444479E+000  7.357202032904035E+000
7.449744242149570E+000  7.543450489089570E+000  7.638335415515758E+000  7.734413847390936E+000
7.831700797165555E+000  7.930211466123445E+000  8.029961246757063E+000  8.130965725172571E+000
8.233240683525214E+000  8.336802102485317E+000  8.441666163735281E+000  8.547849252498040E+000
8.655367960097236E+000  8.764239086549679E+000  8.874479643190380E+000  8.986106855330590E+000
9.099138164949331E+000  9.213591233418684E+000  9.329483944263457E+000  9.446834405955501E+000
9.565660954743205E+000  9.685982157516580E+000  9.807816814708355E+000  9.931183963231584E+000
1.005610287945422E+001  1.018259308221106E+001  1.031067433585365E+001  1.044036665333845E+001
1.057169029935393E+001  1.070466579348695E+001  1.083931391342900E+001  1.097565569822279E+001
1.111371245154958E+001  1.125350574505794E+001  1.139505742173441E+001  1.153838959931643E+001
1.168352467374840E+001  1.183048532268095E+001  1.197929450901448E+001  1.212997548448711E+001
1.228255179330780E+001  1.243704727583526E+001  1.259348607230293E+001  1.275189262659105E+001
1.291229169004600E+001  1.307470832534777E+001  1.323916791042609E+001  1.340569614242571E+001
1.357431904172168E+001  1.374506295598509E+001  1.391795456429991E+001  1.409302088133171E+001
1.427028926154869E+001  1.444978740349592E+001  1.463154335412326E+001  1.481558551316778E+001
1.500194263759129E+001  1.519064384607361E+001  1.538171862356249E+001  1.557519682588065E+001
1.577110868439082E+001  1.596948481071951E+001  1.617035620154004E+001  1.637375424341591E+001
1.657971071770498E+001  1.678825780552535E+001  1.699942809278384E+001  1.721325457526742E+001
1.742977066379903E+001  1.764901018945800E+001  1.787100740886624E+001  1.809579700954099E+001
1.832341411531466E+001  1.855389429182312E+001  1.878727355206288E+001  1.902358836201813E+001
1.926287564635875E+001  1.950517279420975E+001  1.975051766499342E+001  1.999894859434498E+001
2.025050440010258E+001  2.050522438837267E+001  2.076314835967166E+001  2.102431661514479E+001
2.128876996286335E+001  2.155654972420092E+001  2.182769774029007E+001  2.210225637855992E+001
2.238026853935632E+001  2.266177766264500E+001  2.294682773479920E+001  2.323546329547265E+001
2.352772944455895E+001  2.382367184923849E+001  2.412333675111412E+001  2.442677097343640E+001
2.473402192841995E+001  2.504513762465157E+001  2.536016667459177E+001  2.567915830217054E+001
2.600216235047865E+001  2.632922928955586E+001  2.666041022427679E+001  2.699575690233630E+001
2.733532172233508E+001  2.767915774196711E+001  2.802731868631002E+001  2.837985895621969E+001
2.873683363683055E+001  2.909829850616270E+001  2.946431004383735E+001  2.983492543990200E+001
3.021020260376625E+001  3.059020017325047E+001  3.097497752374802E+001  3.136459477750270E+001
3.175911281300316E+001  3.215859327449506E+001  3.256309858161327E+001  3.297269193913500E+001
3.338743734685566E+001  3.380739960958905E+001  3.423264434729313E+001  3.466323800532334E+001
3.509924786481478E+001  3.554074205319507E+001  3.598778955482936E+001  3.644046022179933E+001
3.689882478481765E+001  3.736295486427984E+001  3.783292298145511E+001  3.830880256981786E+001
3.879066798652205E+001  3.927859452401936E+001  3.977265842182398E+001  4.027293687842510E+001
4.077950806334937E+001  4.129245112937512E+001  4.181184622489999E+001  4.233777450646436E+001
4.287031815143224E+001  4.340956037083157E+001  4.395558542235633E+001  4.450847862353166E+001
4.506832636504512E+001  4.563521612424535E+001  4.620923647881051E+001  4.679047712058895E+001
4.737902886961344E+001  4.797498368829220E+001  4.857843469577811E+001  4.918947618251880E+001
4.980820362498981E+001  5.043471370061280E+001  5.106910430286174E+001  5.171147455655890E+001