<UPF version="2.0.1">
<PP_INFO>
Generated in analytical, separable form
Author: Goedecker/Hartwigsen/Hutter/Teter
Generation date: Phys.Rev.B58, 3641 (1998); B54, 1703 (1996)
Pseudopotential type: NC
Element: Ir
Functional: SLA-PW-PBX-PBC

Suggested minimum cutoff for wavefunctions:   0. Ry
Suggested minimum cutoff for charge density:   0. Ry
The Pseudo was generated with a Non-Relativistic Calculation
Local Potential: unknown format, L component and cutoff radius: -3   0.0000

Valence configuration:
nl pn  l   occ       Rcut    Rcut US       E pseu

Generation configuration: not available.
Converted from CPMD format using cpmd2upf v.5.0.1 - PG 10Jul2012
Atomic orbitals could not be generated by ld1.x - use with care
</PP_INFO>
<!--                               -->
<!-- END OF HUMAN READABLE SECTION -->
<!--                               -->
<PP_HEADER generated="Generated in analytical, separable form"
author="Goedecker/Hartwigsen/Hutter/Teter"
date="Phys.Rev.B58, 3641 (1998); B54, 1703 (1996)"
comment="Atomic orbitals could not be generated by ld1.x - use with care"
element="Ir"
pseudo_type="NC"
relativistic="no"
is_ultrasoft="F"
is_paw="F"
is_coulomb="F"
has_so="F"
has_wfc="F"
has_gipaw="F"
paw_as_gipaw="F"
core_correction="F"
functional="SLA-PW-PBX-PBC"
z_valence="1.700000000000000E+001"
total_psenergy="0.000000000000000E+000"
wfc_cutoff="0.000000000000000E+000"
rho_cutoff="0.000000000000000E+000"
l_max="2"
l_max_rho="0"
l_local="-3"
mesh_size="1277"
number_of_wfc="0"
number_of_proj="7"/>
<PP_MESH dx="1.250000000000000E-002" mesh="1277" xmin="-7.000000000000000E+000" rmax="1.001024917027081E+002"
zmesh="7.700000000000000E+001">
<PP_R type="real" size="1277" columns="4">
1.184262292927943E-005  1.199158478790938E-005  1.214242035605951E-005  1.229515320209421E-005
1.244980719083143E-005  1.260640648727154E-005  1.276497556037323E-005  1.292553918687677E-005
1.308812245517546E-005  1.325275076923577E-005  1.341944985256671E-005  1.358824575223920E-005
1.375916484295598E-005  1.393223383117269E-005  1.410747975927088E-005  1.428493000978335E-005
1.446461230967277E-005  1.464655473466406E-005  1.483078571363127E-005  1.501733403303971E-005
1.520622884144382E-005  1.539749965404173E-005  1.559117635728702E-005  1.578728921355863E-005
1.598586886588936E-005  1.618694634275389E-005  1.639055306291707E-005  1.659672084034317E-005
1.680548188916686E-005  1.701686882872675E-005  1.723091468866223E-005  1.744765291407437E-005
1.766711737075187E-005  1.788934235046256E-005  1.811436257631167E-005  1.834221320816729E-005
1.857292984815421E-005  1.880654854621682E-005  1.904310580575199E-005  1.928263858931282E-005
1.952518432438406E-005  1.977078090923028E-005  2.001946671881754E-005  2.027128061080951E-005
2.052626193163918E-005  2.078445052265668E-005  2.104588672635463E-005  2.131061139267177E-005
2.157866588537577E-005  2.185009208852651E-005  2.212493241302044E-005  2.240322980321743E-005
2.268502774365090E-005  2.297037026582234E-005  2.325930195508142E-005  2.355186795759240E-005
2.384811398738841E-005  2.414808633351430E-005  2.445183186725945E-005  2.475939804948151E-005
2.507083293802220E-005  2.538618519521646E-005  2.570550409549606E-005  2.602883953308882E-005
2.635624202981473E-005  2.668776274297999E-005  2.702345347337051E-005  2.736336667334590E-005
2.770755545503517E-005  2.805607359863577E-005  2.840897556081669E-005  2.876631648322749E-005
2.912815220111433E-005  2.949453925204425E-005  2.986553488473943E-005  3.024119706802226E-005
3.062158449987315E-005  3.100675661660225E-005  3.139677360213641E-005  3.179169639742315E-005
3.219158670995271E-005  3.259650702339998E-005  3.300652060738777E-005  3.342169152737273E-005
3.384208465465582E-005  3.426776567651846E-005  3.469880110648637E-005  3.513525829472242E-005
3.557720543855024E-005  3.602471159311024E-005  3.647784668214952E-005  3.693668150894763E-005
3.740128776737978E-005  3.787173805311906E-005  3.834810587497982E-005  3.883046566640338E-005
3.931889279708851E-005  3.981346358476809E-005  4.031425530713388E-005  4.082134621391144E-005
4.133481553908658E-005  4.185474351328606E-005  4.238121137631361E-005  4.291430138984392E-005
4.345409685027626E-005  4.400068210174950E-005  4.455414254932122E-005  4.511456467231238E-005
4.568203603781985E-005  4.625664531439908E-005  4.683848228591858E-005  4.742763786558888E-005
4.802420411016795E-005  4.862827423434520E-005  4.923994262530659E-005  4.985930485748265E-005
5.048645770748221E-005  5.112149916921407E-005  5.176452846919858E-005  5.241564608207219E-005
5.307495374628658E-005  5.374255448000567E-005  5.441855259720233E-005  5.510305372395767E-005
5.579616481496545E-005  5.649799417024375E-005  5.720865145205722E-005  5.792824770205197E-005
5.865689535860605E-005  5.939470827439835E-005  6.014180173419800E-005  6.089829247287807E-005
6.166429869365555E-005  6.243994008656091E-005  6.322533784713978E-005  6.402061469539028E-005
6.482589489493789E-005  6.564130427245213E-005  6.646697023730721E-005  6.730302180148992E-005
6.814958959975825E-005  6.900680591005294E-005  6.987480467416649E-005  7.075372151867181E-005
7.164369377611392E-005  7.254486050646883E-005  7.345736251887153E-005  7.438134239361799E-005
7.531694450444346E-005  7.626431504108119E-005  7.722360203210512E-005  7.819495536805920E-005
7.917852682487842E-005  8.017447008760398E-005  8.118294077439690E-005  8.220409646085386E-005
8.323809670462835E-005  8.428510307036216E-005  8.534527915493012E-005  8.641879061300226E-005
8.750580518292814E-005  8.860649271294581E-005  8.972102518772120E-005  9.084957675522100E-005
9.199232375392362E-005  9.314944474037272E-005  9.432112051707651E-005  9.550753416075891E-005
9.670887105096551E-005  9.792531889902947E-005  9.915706777740210E-005  1.004043101493516E-004
1.016672408990360E-004  1.029460573619546E-004  1.042409593557812E-004  1.055521492115872E-004
1.068798318054549E-004  1.082242145904910E-004  1.095855076292407E-004  1.109639236265109E-004
1.123596779626056E-004  1.137729887269796E-004  1.152040767523150E-004  1.166531656490276E-004
1.181204818402054E-004  1.196062545969888E-004  1.211107160743939E-004  1.226341013475872E-004
1.241766484486171E-004  1.257385984036063E-004  1.273201952704134E-004  1.289216861767664E-004
1.305433213588777E-004  1.321853542005439E-004  1.338480412727369E-004  1.355316423736949E-004
1.372364205695150E-004  1.389626422352588E-004  1.407105770965735E-004  1.424804982718374E-004
1.442726823148351E-004  1.460874092579697E-004  1.479249626560179E-004  1.497856296304368E-004
1.516697009142265E-004  1.535774708973587E-004  1.555092376727743E-004  1.574653030829623E-004
1.594459727671227E-004  1.614515562089231E-004  1.634823667848571E-004  1.655387218132087E-004
1.676209426036347E-004  1.697293545073700E-004  1.718642869680640E-004  1.740260735732575E-004
1.762150521065056E-004  1.784315646001577E-004  1.806759573888004E-004  1.829485811633730E-004
1.852497910259644E-004  1.875799465452971E-004  1.899394118129120E-004  1.923285555000573E-004
1.947477509152948E-004  1.971973760628305E-004  1.996778137015771E-004  2.021894514049622E-004
2.047326816214870E-004  2.073079017360469E-004  2.099155141320243E-004  2.125559262541614E-004
2.152295506722241E-004  2.179368051454672E-004  2.206781126879100E-004  2.234539016344335E-004
2.262646057077080E-004  2.291106640859631E-004  2.319925214716110E-004  2.349106281607312E-004
2.378654401134309E-004  2.408574190250894E-004  2.438870323984988E-004  2.469547536169124E-004
2.500610620180121E-004  2.532064429688052E-004  2.563913879414647E-004  2.596163945901225E-004
2.628819668286285E-004  2.661886149092891E-004  2.695368555025941E-004  2.729272117779484E-004
2.763602134854178E-004  2.798363970385035E-004  2.833563055979581E-004  2.869204891566551E-004
2.905295046255273E-004  2.941839159205841E-004  2.978842940510251E-004  3.016312172084620E-004
3.054252708572611E-004  3.092670478260244E-004  3.131571484002191E-004  3.170961804159745E-004
3.210847593550572E-004  3.251235084410409E-004  3.292130587366876E-004  3.333540492425511E-004
3.375471269968227E-004  3.417929471764327E-004  3.460921731994219E-004  3.504454768286037E-004
3.548535382765269E-004  3.593170463117607E-004  3.638366983665172E-004  3.684132006456247E-004
3.730472682368757E-004  3.777396252227595E-004  3.824910047936012E-004  3.873021493621261E-004
3.921738106794611E-004  3.971067499525987E-004  4.021017379633363E-004  4.071595551887129E-004
4.122809919229604E-004  4.174668484009879E-004  4.227179349234212E-004  4.280350719832125E-004
4.334190903938452E-004  4.388708314191501E-004  4.443911469047536E-004  4.499808994111821E-004
4.556409623486369E-004  4.613722201134671E-004  4.671755682263593E-004  4.730519134722628E-004
4.790021740420781E-004  4.850272796761249E-004  4.911281718094167E-004  4.973058037187619E-004
5.035611406717144E-004  5.098951600774002E-004  5.163088516392379E-004  5.228032175095825E-004
5.293792724463146E-004  5.360380439713967E-004  5.427805725314275E-004  5.496079116602119E-004
5.565211281433791E-004  5.635213021850698E-004  5.706095275767197E-004  5.777869118679678E-004
5.850545765397120E-004  5.924136571793429E-004  5.998653036581834E-004  6.074106803111556E-004
6.150509661187134E-004  6.227873548910581E-004  6.306210554546750E-004  6.385532918412154E-004
6.465853034787525E-004  6.547183453854465E-004  6.629536883656418E-004  6.712926192084336E-004
6.797364408887325E-004  6.882864727708549E-004  6.969440508146770E-004  7.057105277843831E-004
7.145872734598341E-004  7.235756748506029E-004  7.326771364126931E-004  7.418930802679908E-004
7.512249464264739E-004  7.606741930112147E-004  7.702422964862175E-004  7.799307518871166E-004
7.897410730547789E-004  7.996747928718472E-004  8.097334635022523E-004  8.199186566337455E-004
8.302319637234753E-004  8.406749962466566E-004  8.512493859483683E-004  8.619567850985143E-004
8.727988667499972E-004  8.837773250001328E-004  8.948938752553582E-004  9.061502544992684E-004
9.175482215640207E-004  9.290895574051592E-004  9.407760653798896E-004  9.526095715288588E-004
9.645919248614793E-004  9.767249976448363E-004  9.890106856962383E-004  1.001450908679438E-003
1.014047610404587E-003  1.026802759131957E-003  1.039718347879488E-003  1.052796394734198E-003
1.066038943167517E-003  1.079448062354579E-003  1.093025847497538E-003  1.106774420152946E-003
1.120695928563254E-003  1.134792547992473E-003  1.149066481066069E-003  1.163519958115126E-003
1.178155237524838E-003  1.192974606087389E-003  1.207980379359267E-003  1.223174902023074E-003
1.238560548253892E-003  1.254139722090244E-003  1.269914857809741E-003  1.285888420309433E-003
1.302062905490958E-003  1.318440840650533E-003  1.335024784873849E-003  1.351817329435931E-003
1.368821098206031E-003  1.386038748057613E-003  1.403472969283498E-003  1.421126486016220E-003
1.439002056653687E-003  1.457102474290179E-003  1.475430567152776E-003  1.493989199043278E-003
1.512781269785675E-003  1.531809715679254E-003  1.551077509957398E-003  1.570587663252165E-003
1.590343224064701E-003  1.610347279241574E-003  1.630602954457107E-003  1.651113414701762E-003
1.671881864776678E-003  1.692911549794438E-003  1.714205755686107E-003  1.735767809714681E-003
1.757601080994971E-003  1.779708981020032E-003  1.802094964194225E-003  1.824762528372963E-003
1.847715215409268E-003  1.870956611707186E-003  1.894490348782174E-003  1.918320103828531E-003
1.942449600293962E-003  1.966882608461384E-003  1.991622946038032E-003  2.016674478751987E-003
2.042041120956203E-003  2.067726836240134E-003  2.093735638049049E-003  2.120071590311148E-003
2.146738808072553E-003  2.173741458140293E-003  2.201083759733379E-003  2.228769985142062E-003
2.256804460395392E-003  2.285191565937163E-003  2.313935737310370E-003  2.343041465850270E-003
2.372513299386165E-003  2.402355842952004E-003  2.432573759505936E-003  2.463171770658900E-003
2.494154657412392E-003  2.525527260905501E-003  2.557294483171352E-003  2.589461287903055E-003
2.622032701229292E-003  2.655013812499663E-003  2.688409775079905E-003  2.722225807157115E-003
2.756467192555106E-003  2.791139281560009E-003  2.826247491756272E-003  2.861797308873168E-003
2.897794287641946E-003  2.934244052663779E-003  2.971152299288604E-003  3.008524794505050E-003
3.046367377841529E-003  3.084685962278678E-003  3.123486535173276E-003  3.162775159193777E-003
3.202557973267618E-003  3.242841193540436E-003  3.283631114347358E-003  3.324934109196495E-003
3.366756631764826E-003  3.409105216906589E-003  3.451986481674372E-003  3.495407126353038E-003
3.539373935506658E-003  3.583893779038613E-003  3.628973613265031E-003  3.674620482001726E-003
3.720841517664807E-003  3.767643942385135E-003  3.815035069136791E-003  3.863022302879749E-003
3.911613141716911E-003  3.960815178065706E-003  4.010636099844415E-003  4.061083691673427E-003
4.112165836091601E-003  4.163890514787932E-003  4.216265809848699E-003  4.269299905020315E-003
4.323001086988048E-003  4.377377746670836E-003  4.432438380532386E-003  4.488191591908761E-003
4.544646092352668E-003  4.601810702994660E-003  4.659694355921451E-003  4.718306095571576E-003
4.777655080148603E-003  4.837750583052118E-003  4.898601994326715E-003  4.960218822129208E-003
5.022610694214303E-003  5.085787359438950E-003  5.149758689285623E-003  5.214534679404763E-003
5.280125451176614E-003  5.346541253292709E-003  5.413792463357254E-003  5.481889589508644E-003
5.550843272061387E-003  5.620664285168667E-003  5.691363538505837E-003  5.762952078975065E-003
5.835441092431452E-003  5.908841905430827E-003  5.983165986999558E-003  6.058424950426604E-003
6.134630555078115E-003  6.211794708234860E-003  6.289929466952762E-003  6.369047039946835E-003
6.449159789498827E-003  6.530280233388846E-003  6.612421046851290E-003  6.695595064555381E-003
6.779815282610600E-003  6.865094860597370E-003  6.951447123623252E-003  7.038885564405030E-003
7.127423845376969E-003  7.217075800825604E-003  7.307855439051375E-003  7.399776944557445E-003
7.492854680266063E-003  7.587103189762806E-003  7.682537199569029E-003  7.779171621442931E-003
7.877021554709528E-003  7.976102288619974E-003  8.076429304740524E-003  8.178018279371561E-003
8.280885085997058E-003  8.385045797764834E-003  8.490516689998019E-003  8.597314242738107E-003
8.705455143319994E-003  8.814956288979410E-003  8.925834789493148E-003  9.038107969852497E-003
9.151793372970307E-003  9.266908762422114E-003  9.383472125221720E-003  9.501501674631716E-003
9.621015853009328E-003  9.742033334688078E-003  9.864573028895698E-003  9.988654082708713E-003
1.011429588404422E-002  1.024151806468931E-002  1.037034050336854E-002  1.050078332885004E-002
1.063286692309068E-002  1.076661192442079E-002  1.090203923076893E-002  1.103917000292725E-002
1.117802566785790E-002  1.131862792204102E-002  1.146099873486488E-002  1.160516035205865E-002
1.175113529916831E-002  1.189894638507634E-002  1.204861670556563E-002  1.220016964692826E-002
1.235362888961967E-002  1.250901841195873E-002  1.266636249387446E-002  1.282568572069976E-002
1.298701298701299E-002  1.315036950052773E-002  1.331578078603155E-002  1.348327268937436E-002
1.365287138150681E-002  1.382460336256961E-002  1.399849546603418E-002  1.417457486289548E-002
1.435286906591751E-002  1.453340593393222E-002  1.471621367619256E-002  1.490132085678017E-002
1.508875639906862E-002  1.527854959024274E-002  1.547073008587479E-002  1.566532791455820E-002
1.586237348259962E-002  1.606189757876994E-002  1.626393137911513E-002  1.646850645182753E-002
1.667565476217847E-002  1.688540867751288E-002  1.709780097230678E-002  1.731286483328835E-002
1.753063386462343E-002  1.775114209316619E-002  1.797442397377600E-002  1.820051439470096E-002
1.842944868302932E-002  1.866126261020942E-002  1.889599239763898E-002  1.913367472232488E-002
1.937434672261391E-002  1.961804600399576E-002  1.986481064497895E-002  2.011467920304070E-002
2.036769072065155E-002  2.062388473137590E-002  2.088330126604914E-002  2.114598085903261E-002
2.141196455454713E-002  2.168129391308628E-002  2.195401101791029E-002  2.223015848162162E-002
2.250977945282332E-002  2.279291762286103E-002  2.307961723264986E-002  2.336992307958714E-002
2.366388052455207E-002  2.396153549899352E-002  2.426293451210679E-002  2.456812465810091E-002
2.487715362355710E-002  2.519006969487993E-002  2.550692176584218E-002  2.582775934522458E-002
2.615263256455166E-002  2.648159218592488E-002  2.681468960995438E-002  2.715197688379034E-002
2.749350670925553E-002  2.783933245108000E-002  2.818950814523952E-002  2.854408850739874E-002
2.890312894146063E-002  2.926668554822350E-002  2.963481513414681E-002  3.000757522022734E-002
3.038502405098691E-002  3.076722060357326E-002  3.115422459697531E-002  3.154609650135441E-002
3.194289754749287E-002  3.234468973636145E-002  3.275153584880713E-002  3.316349945536270E-002
3.358064492617983E-002  3.400303744108704E-002  3.443074299977412E-002  3.486382843210482E-002
3.530236140855905E-002  3.574641045080656E-002  3.619604494241366E-002  3.665133513968444E-002
3.711235218263851E-002  3.757916810612678E-002  3.805185585108705E-002  3.853048927594115E-002
3.901514316813551E-002  3.950589325582682E-002  4.000281621971472E-002  4.050598970502330E-002
4.101549233363336E-002  4.153140371636724E-002  4.205380446542809E-002  4.258277620699578E-002
4.311840159398116E-002  4.366076431894066E-002  4.420994912715352E-002  4.476604182986333E-002
4.532912931768627E-002  4.589929957418794E-002  4.647664168963091E-002  4.706124587489537E-002
4.765320347557463E-002  4.825260698624813E-002  4.885955006493392E-002  4.947412754772289E-002
5.009643546359709E-002  5.072657104943447E-002  5.136463276520233E-002  5.201072030934190E-002
5.266493463434645E-002  5.332737796253526E-002  5.399815380202610E-002  5.467736696290861E-002
5.536512357362103E-002  5.606153109753307E-002  5.676669834973715E-002  5.748073551405112E-002
5.820375416023464E-002  5.893586726142214E-002  5.967718921177521E-002  6.042783584435679E-002
6.118792444923044E-002  6.195757379178708E-002  6.273690413130235E-002  6.352603723972737E-002
6.432509642071581E-002  6.513420652889042E-002  6.595349398935173E-002  6.678308681743231E-002
6.762311463869937E-002  6.847370870920902E-002  6.933500193601531E-002  7.020712889793726E-002
7.109022586658703E-002  7.198443082766268E-002  7.288988350250857E-002  7.380672536994735E-002
7.473509968838615E-002  7.567515151820099E-002  7.662702774440286E-002  7.759087709958866E-002
7.856685018718115E-002  7.955509950496090E-002  8.055577946889439E-002  8.156904643726191E-002
8.259505873508877E-002  8.363397667888392E-002  8.468596260168981E-002  8.575118087844714E-002
8.682979795167887E-002  8.792198235749714E-002  8.902790475193742E-002  9.014773793762387E-002
9.128165689077009E-002  9.242983878851946E-002  9.359246303662951E-002  9.476971129750435E-002
9.596176751857990E-002  9.716881796106601E-002  9.839105122904998E-002  9.962865829896667E-002
1.008818325494387E-001  1.021507697914922E-001  1.034356682991529E-001  1.047367288404270E-001
1.060541547086708E-001  1.073881517543568E-001  1.087389284172373E-001  1.101066957589140E-001
1.114916674958168E-001  1.128940600325975E-001  1.143140924959430E-001  1.157519867688148E-001
1.172079675251185E-001  1.186822622648094E-001  1.201751013494402E-001  1.216867180381550E-001
1.232173485241368E-001  1.247672319715131E-001  1.263366105527258E-001  1.279257294863713E-001
1.295348370755159E-001  1.311641847464942E-001  1.328140270881949E-001  1.344846218918402E-001
1.361762301912673E-001  1.378891163037144E-001  1.396235478711216E-001  1.413797959019499E-001
1.431581348135273E-001  1.449588424749269E-001  1.467822002503843E-001  1.486284930432614E-001
1.504980093405636E-001  1.523910412580158E-001  1.543078845857066E-001  1.562488388343057E-001
1.582142072818634E-001  1.602042970211982E-001  1.622194190078807E-001  1.642598881088212E-001
1.663260231514681E-001  1.684181469736252E-001  1.705365864738964E-001  1.726816726627635E-001
1.748537407143078E-001  1.770531300185814E-001  1.792801842346377E-001  1.815352513442291E-001
1.838186837061793E-001  1.861308381114407E-001  1.884720758388432E-001  1.908427627115448E-001
1.932432691541928E-001  1.956739702508025E-001  1.981352458033658E-001  2.006274803911952E-001
2.031510634310153E-001  2.057063892378107E-001  2.082938570864374E-001  2.109138712740110E-001
2.135668411830787E-001  2.162531813455864E-001  2.189733115076499E-001  2.217276566951411E-001
2.245166472800993E-001  2.273407190479778E-001  2.302003132657357E-001  2.330958767507877E-001
2.360278619408191E-001  2.389967269644812E-001  2.420029357129742E-001  2.450469579125311E-001
2.481292691978137E-001  2.512503511862314E-001  2.544106915531948E-001  2.576107841083160E-001
2.608511288725672E-001  2.641322321564106E-001  2.674546066389096E-001  2.708187714478366E-001
2.742252522407874E-001  2.776745812873163E-001  2.811672975521048E-001  2.847039467791749E-001
2.882850815771643E-001  2.919112615056705E-001  2.955830531626849E-001  2.993010302731245E-001
3.030657737784769E-001  3.068778719275744E-001  3.107379203685084E-001  3.146465222417011E-001
3.186042882741476E-001  3.226118368748422E-001  3.266697942314075E-001  3.307787944079363E-001
3.349394794440659E-001  3.391524994552984E-001  3.434185127345818E-001  3.477381858551706E-001
3.521121937747780E-001  3.565412199410404E-001  3.610259563983075E-001  3.655671038957747E-001
3.701653719969779E-001  3.748214791906628E-001  3.795361530030513E-001  3.843101301115191E-001
3.891441564597016E-001  3.940389873740511E-001  3.989953876818563E-001  4.040141318307490E-001
4.090960040097136E-001  4.142417982716171E-001  4.194523186572817E-001  4.247283793211191E-001
4.300708046583419E-001  4.354804294337786E-001  4.409580989123061E-001  4.465046689909247E-001
4.521210063324941E-001  4.578079885011501E-001  4.635665040994272E-001  4.693974529071032E-001
4.753017460217923E-001  4.812803060013064E-001  4.873340670078054E-001  4.934639749537634E-001
4.996709876497682E-001  5.059560749541816E-001  5.123202189246825E-001  5.187644139717137E-001
5.252896670138625E-001  5.318969976351925E-001  5.385874382445555E-001  5.453620342369092E-001
5.522218441566598E-001  5.591679398630641E-001  5.662014066977081E-001  5.733233436540942E-001
5.805348635493618E-001  5.878370931981660E-001  5.952311735887467E-001  6.027182600612078E-001
6.102995224880430E-001  6.179761454569312E-001  6.257493284558291E-001  6.336202860603953E-001
6.415902481237691E-001  6.496604599687372E-001  6.578321825823203E-001  6.661066928128017E-001
6.744852835692399E-001  6.829692640234867E-001  6.915599598147486E-001  7.002587132567216E-001
7.090668835473284E-001  7.179858469810966E-001  7.270169971642098E-001  7.361617452322574E-001
7.454215200707304E-001  7.547977685382862E-001  7.642919556928235E-001  7.739055650204024E-001
7.836400986670390E-001  7.934970776734205E-001  8.034780422125707E-001  8.135845518305047E-001
8.238181856899136E-001  8.341805428169077E-001  8.446732423508703E-001  8.552979237974514E-001
8.660562472847430E-001  8.769498938226773E-001  8.879805655656903E-001  8.991499860786837E-001
9.104599006063365E-001  9.219120763458043E-001  9.335083027228451E-001  9.452503916714243E-001
9.571401779168291E-001  9.691795192623504E-001  9.813702968795673E-001  9.937144156022842E-001
1.006213804224168E+000  1.018870415800119E+000  1.031686227951447E+000  1.044663243174874E+000
1.057803489155430E+000  1.071109019083286E+000  1.084581911974562E+000  1.098224272996183E+000
1.112038233794814E+000  1.126025952829934E+000  1.140189615711102E+000  1.154531435539459E+000
1.169053653253531E+000  1.183758537979382E+000  1.198648387385167E+000  1.213725528040152E+000
1.228992315778236E+000  1.244451136066064E+000  1.260104404375759E+000  1.275954566562338E+000
1.292004099245894E+000  1.308255510198560E+000  1.324711338736361E+000  1.341374156115985E+000
1.358246565936548E+000  1.375331204546415E+000  1.392630741455124E+000  1.410147879750516E+000
1.427885356521086E+000  1.445845943283667E+000  1.464032446416484E+000  1.482447707597650E+000
1.501094604249192E+000  1.519976049986648E+000  1.539094995074329E+000  1.558454426886305E+000
1.578057370373182E+000  1.597906888534762E+000  1.618006082898642E+000  1.638358094004833E+000
1.658966101896479E+000  1.679833326616740E+000  1.700963028711931E+000  1.722358509740996E+000
1.744023112791370E+000  1.765960223001363E+000  1.788173268089074E+000  1.810665718887991E+000
1.833441089889312E+000  1.856502939791091E+000  1.879854872054299E+000  1.903500535465859E+000
1.927443624708789E+000  1.951687880939493E+000  1.976237092372333E+000  2.001095094871542E+000
2.026265772550586E+000  2.051753058379060E+000  2.077560934797229E+000  2.103693434338290E+000
2.130154640258465E+000  2.156948687175015E+000  2.184079761712280E+000  2.211552103155859E+000
2.239370004114992E+000  2.267537811193303E+000  2.296059925667954E+000  2.324940804177361E+000
2.354184959417550E+000  2.383796960847273E+000  2.413781435402002E+000  2.444143068216889E+000
2.474886603358833E+000  2.506016844567748E+000  2.537538656007155E+000  2.569456963024228E+000
2.601776752919374E+000  2.634503075725520E+000  2.667641044997187E+000  2.701195838609489E+000
2.735172699567202E+000  2.769576936823975E+000  2.804413926111874E+000  2.839689110781353E+000
2.875408002651781E+000  2.911576182872690E+000  2.948199302795819E+000  2.985283084858169E+000
3.022833323476134E+000  3.060855885950891E+000  3.099356713385190E+000  3.138341821611646E+000
3.177817302132735E+000  3.217789323072602E+000  3.258264130140839E+000  3.299248047608403E+000
3.340747479295779E+000  3.382768909573598E+000  3.425318904375835E+000  3.468404112225742E+000
3.512031265274711E+000  3.556207180354163E+000  3.600938760040704E+000  3.646232993734669E+000
3.692096958752220E+000  3.738537821431209E+000  3.785562838250911E+000  3.833179356965877E+000
3.881394817754034E+000  3.930216754379219E+000  3.979652795368367E+000  4.029710665203460E+000
4.080398185528500E+000  4.131723276371663E+000  4.183693957382812E+000  4.236318349086598E+000
4.289604674151285E+000  4.343561258673575E+000  4.398196533479578E+000  4.453519035442135E+000
4.509537408814737E+000  4.566260406582193E+000  4.623696891828304E+000  4.681855839120749E+000
4.740746335913363E+000  4.800377583966090E+000  4.860758900782756E+000  4.921899721066960E+000
4.983809598196263E+000  5.046498205714919E+000  5.109975338845404E+000  5.174250916018909E+000
5.239334980425136E+000  5.305237701581565E+000  5.371969376922451E+000  5.439540433407844E+000
5.507961429152787E+000  5.577243055077069E+000  5.647396136575697E+000  5.718431635210376E+000
5.790360650422301E+000  5.863194421266435E+000  5.936944328167654E+000  6.011621894698956E+000
6.087238789382039E+000  6.163806827510552E+000  6.241337972996226E+000  6.319844340238281E+000
6.399338196016322E+000  6.479831961407039E+000  6.561338213725052E+000  6.643869688488107E+000
6.727439281407045E+000  6.812060050400785E+000  6.897745217636638E+000  6.984508171596324E+000
7.072362469167914E+000  7.161321837764146E+000  7.251400177467350E+000  7.342611563201366E+000
7.434970246930797E+000  7.528490659887876E+000  7.623187414827395E+000  7.719075308309977E+000
7.816169323014055E+000  7.914484630076982E+000  8.014036591465501E+000  8.114840762376122E+000
8.216912893665638E+000  8.320268934312219E+000  8.424925033907511E+000  8.530897545179997E+000
8.638203026550160E+000  8.746858244717785E+000  8.856880177281759E+000  8.968286015392906E+000
9.081093166440075E+000  9.195319256770130E+000  9.310982134442076E+000  9.428099872015862E+000
9.546690769376276E+000  9.666773356592300E+000  9.788366396812494E+000  9.911488889196775E+000
1.003616007188506E+001  1.016239942500332E+001  1.029022667370730E+001  1.041966179126467E+001
1.055072500217590E+001  1.068343678533432E+001  1.081781787722608E+001  1.095388927517017E+001
1.109167224059938E+001  1.123118830238236E+001  1.137245926018761E+001  1.151550718788972E+001
1.166035443701842E+001  1.180702364025108E+001  1.195553771494910E+001  1.210591986673881E+001
1.225819359313739E+001  1.241238268722438E+001  1.256851124135945E+001  1.272660365094681E+001
1.288668461824709E+001  1.304877915623716E+001  1.321291259251833E+001  1.337911057327396E+001
1.354739906727668E+001  1.371780436994604E+001  1.389035310745732E+001  1.406507224090177E+001
1.424198907049947E+001  1.442113123986500E+001  1.460252674032676E+001  1.478620391530078E+001
1.497219146471933E+001  1.516051844951541E+001  1.535121429616353E+001  1.554430880127771E+001
1.573983213626724E+001  1.593781485205100E+001  1.613828788383113E+001  1.634128255592671E+001
1.654683058666824E+001  1.675496409335373E+001  1.696571559726705E+001  1.717911802875946E+001
1.739520473239505E+001  1.761400947216089E+001  1.783556643674274E+001  1.805991024486708E+001
1.828707595071035E+001  1.851709904937626E+001  1.875001548244195E+001  1.898586164357400E+001
1.922467438421489E+001  1.946649101934121E+001  1.971134933329419E+001  1.995928758568354E+001
2.021034451736564E+001  2.046455935649686E+001  2.072197182466299E+001  2.098262214308591E+001
2.124655103890814E+001  2.151379975155667E+001  2.178441003918654E+001  2.205842418520576E+001
2.233588500488213E+001  2.261683585203323E+001  2.290132062580050E+001  2.318938377750866E+001
2.348107031761123E+001  2.377642582272354E+001  2.407549644274416E+001  2.437832890806591E+001
2.468497053687767E+001  2.499546924255778E+001  2.530987354116071E+001  2.562823255899779E+001
2.595059604031323E+001  2.627701435505690E+001  2.660753850675454E+001  2.694222014047732E+001
2.728111155091142E+001  2.762426569052918E+001  2.797173617786312E+001  2.832357730588378E+001
2.867984405048326E+001  2.904059207906522E+001  2.940587775924305E+001  2.977575816764751E+001
3.015029109884492E+001  3.052953507436776E+001  3.091354935185880E+001  3.130239393433015E+001
3.169612957953897E+001  3.209481780948088E+001  3.249852092000292E+001  3.290730199053748E+001