<UPF version="2.0.1">
<PP_INFO>
Generated in analytical, separable form
Author: Goedecker/Hartwigsen/Hutter/Teter
Generation date: Phys.Rev.B58, 3641 (1998); B54, 1703 (1996)
Pseudopotential type: NC
Element: La
Functional: SLA-PW-PBX-PBC

Suggested minimum cutoff for wavefunctions:   0. Ry
Suggested minimum cutoff for charge density:   0. Ry
The Pseudo was generated with a Non-Relativistic Calculation
Local Potential: unknown format, L component and cutoff radius: -3   0.0000

Valence configuration:
nl pn  l   occ       Rcut    Rcut US       E pseu

Generation configuration: not available.
Converted from CPMD format using cpmd2upf v.5.0.1 - PG 10Jul2012
Atomic orbitals could not be generated by ld1.x - use with care
</PP_INFO>
<!--                               -->
<!-- END OF HUMAN READABLE SECTION -->
<!--                               -->
<PP_HEADER generated="Generated in analytical, separable form" author="Goedecker/Hartwigsen/Hutter/Teter" date="Phys.Rev.B58, 3641 (1998); B54, 1703 (1996)" comment="Atomic orbitals could not be generated by ld1.x - use with care" element="La" pseudo_type="NC" relativistic="no" is_ultrasoft="F" is_paw="F" is_coulomb="F" has_so="F" has_wfc="F" has_gipaw="F" paw_as_gipaw="F" core_correction="F" functional="SLA-PW-PBX-PBC" z_valence="1.100000000000000E+001" total_psenergy="0.000000000000000E+000" wfc_cutoff="0.000000000000000E+000" rho_cutoff="0.000000000000000E+000" l_max="3" l_max_rho="0" l_local="-3" mesh_size="1253" number_of_wfc="0" number_of_proj="6"/>
<PP_MESH dx="1.250000000000000E-002" mesh="1253" xmin="-7.000000000000000E+000" rmax="1.001780128728686E+002" zmesh="5.700000000000000E+001">
<PP_R type="real" size="1253" columns="4">
1.599792922025467E-005  1.619915839770215E-005  1.640291872660670E-005  1.660924204493428E-005
1.681816059112316E-005  1.702970700912121E-005  1.724391435348664E-005  1.746081609455283E-005
1.768044612365808E-005  1.790283875844131E-005  1.812802874820416E-005  1.835605127934068E-005
1.858694198083526E-005  1.882073692982977E-005  1.905747265726067E-005  1.929718615356699E-005
1.953991487447023E-005  1.978569674682688E-005  2.003457017455452E-005  2.028657404463259E-005
2.054174773317850E-005  2.080013111160023E-005  2.106176455282633E-005  2.132668893761429E-005
2.159494566093826E-005  2.186657663845701E-005  2.214162431306341E-005  2.242013166151622E-005
2.270214220115523E-005  2.298769999670105E-005  2.327684966714020E-005  2.356963639269696E-005
2.386610592189287E-005  2.416630457869504E-005  2.447027926975436E-005  2.477807749173477E-005
2.508974733873464E-005  2.540533750980168E-005  2.572489731654216E-005  2.604847669082609E-005
2.637612619258899E-005  2.670789701773213E-005  2.704384100612194E-005  2.738401064969004E-005
2.772845910063539E-005  2.807724017972920E-005  2.843040838472468E-005  2.878801889887239E-005
2.915012759954270E-005  2.951679106695686E-005  2.988806659302761E-005  3.026401219031127E-005
3.064468660107228E-005  3.103014930646177E-005  3.142046053581175E-005  3.181568127604588E-005
3.221587328120890E-005  3.262109908211581E-005  3.303142199612241E-005  3.344690613701889E-005
3.386761642504753E-005  3.429361859704679E-005  3.472497921672275E-005  3.516176568504981E-005
3.560404625080235E-005  3.605189002121858E-005  3.650536697279876E-005  3.696454796223920E-005
3.742950473750365E-005  3.790030994903429E-005  3.837703716110324E-005  3.885976086330731E-005
3.934855648220708E-005  3.984350039311240E-005  4.034466993201642E-005  4.085214340767919E-005
4.136600011386374E-005  4.188632034172585E-005  4.241318539235971E-005  4.294667758950145E-005
4.348688029239225E-005  4.403387790880348E-005  4.458775590822559E-005  4.514860083522280E-005
4.571650032295611E-005  4.629154310687582E-005  4.687381903858685E-005  4.746341909988819E-005
4.806043541698892E-005  4.866496127490331E-005  4.927709113202654E-005  4.989692063489417E-005
5.052454663312707E-005  5.116006719456434E-005  5.180358162058678E-005  5.245519046163264E-005
5.311499553290904E-005  5.378309993030076E-005  5.445960804647910E-005  5.514462558721369E-005
5.583825958788889E-005  5.654061843022853E-005  5.725181185923067E-005  5.797195100031547E-005
5.870114837668898E-005  5.943951792692477E-005  6.018717502276727E-005  6.094423648715883E-005
6.171082061249347E-005  6.248704717910052E-005  6.327303747396019E-005  6.406891430965515E-005
6.487480204356022E-005  6.569082659727334E-005  6.651711547629137E-005  6.735379778993270E-005
6.820100427151106E-005  6.905886729876287E-005  6.992752091453141E-005  7.080710084771154E-005
7.169774453445731E-005  7.259959113965678E-005  7.351278157867683E-005  7.443745853938141E-005
7.537376650442701E-005  7.632185177383806E-005  7.728186248786678E-005  7.825394865014039E-005
7.923826215109940E-005  8.023495679173111E-005  8.124418830760081E-005  8.226611439318615E-005
8.330089472651715E-005  8.434869099412613E-005  8.540966691631164E-005  8.648398827272020E-005
8.757182292824942E-005  8.867334085927745E-005  8.978871418022203E-005  9.091811717043377E-005
9.206172630142780E-005  9.321972026445747E-005  9.439227999843545E-005  9.557958871820578E-005
9.678183194317142E-005  9.799919752628245E-005  9.923187568338786E-005  1.004800590229576E-004
1.017439425761780E-004  1.030237238274255E-004  1.043196027451245E-004  1.056317818129923E-004
1.069604660616779E-004  1.083058631007984E-004  1.096681831513783E-004  1.110476390786973E-004
1.124444464255506E-004  1.138588234459278E-004  1.152909911391161E-004  1.167411732842311E-004
1.182095964751836E-004  1.196964901560847E-004  1.212020866570971E-004  1.227266212307371E-004
1.242703320886337E-004  1.258334604387491E-004  1.274162505230683E-004  1.290189496557620E-004
1.306418082618306E-004  1.322850799162328E-004  1.339490213835081E-004  1.356338926578960E-004
1.373399570039609E-004  1.390674809977281E-004  1.408167345683360E-004  1.425879910402142E-004
1.443815271757900E-004  1.461976232187335E-004  1.480365629377463E-004  1.498986336709007E-004
1.517841263705374E-004  1.536933356487268E-004  1.556265598233028E-004  1.575841009644759E-004
1.595662649420318E-004  1.615733614731253E-004  1.636057041706724E-004  1.656636105923546E-004
1.677474022902371E-004  1.698574048610120E-004  1.719939479968742E-004  1.741573655370353E-004
1.763479955198875E-004  1.785661802358224E-004  1.808122662807147E-004  1.830866046100790E-004
1.853895505939062E-004  1.877214640721917E-004  1.900827094111607E-004  1.924736555602014E-004
1.948946761095141E-004  1.973461493484853E-004  1.998284583247961E-004  2.023419909042742E-004
2.048871398314990E-004  2.074643027911687E-004  2.100738824702390E-004  2.127162866208438E-004
2.153919281240078E-004  2.181012250541593E-004  2.208446007444561E-004  2.236224838529310E-004
2.264353084294715E-004  2.292835139836402E-004  2.321675455533496E-004  2.350878537744005E-004
2.380448949508936E-004  2.410391311265288E-004  2.440710301568006E-004  2.471410657821004E-004
2.502497177017413E-004  2.533974716489102E-004  2.565848194665653E-004  2.598122591842880E-004
2.630802950961001E-004  2.663894378392622E-004  2.697402044740602E-004  2.731331185645981E-004
2.765687102606053E-004  2.800475163802738E-004  2.835700804941381E-004  2.871369530100075E-004
2.907486912589694E-004  2.944058595824732E-004  2.981090294205099E-004  3.018587794009015E-004
3.056556954297108E-004  3.095003707827923E-004  3.133934061984921E-004  3.173354099715140E-004
3.213269980479680E-004  3.253687941216120E-004  3.294614297313054E-004  3.336055443596887E-004
3.378017855331040E-004  3.420508089227719E-004  3.463532784472418E-004  3.507098663761303E-004
3.551212534351647E-004  3.595881289125484E-004  3.641111907666621E-004  3.686911457351233E-004
3.733287094452136E-004  3.780246065256977E-004  3.827795707200487E-004  3.875943450010955E-004
3.924696816871158E-004  3.974063425593855E-004  4.024050989812093E-004  4.074667320184487E-004
4.125920325615633E-004  4.177818014491909E-004  4.230368495932785E-004  4.283579981057901E-004
4.337460784270070E-004  4.392019324554412E-004  4.447264126793850E-004  4.503203823101129E-004
4.559847154167605E-004  4.617202970629003E-004  4.675280234448331E-004  4.734088020316226E-004
4.793635517068872E-004  4.853932029123786E-004  4.914986977933653E-004  4.976809903458439E-004
5.039410465656041E-004  5.102798445991662E-004  5.166983748966191E-004  5.231976403663809E-004
5.297786565319036E-004  5.364424516903526E-004  5.431900670732788E-004  5.500225570093138E-004
5.569409890889115E-004  5.639464443311591E-004  5.710400173526917E-004  5.782228165387257E-004
5.854959642162470E-004  5.928605968293782E-004  6.003178651169480E-004  6.078689342922987E-004
6.155149842253516E-004  6.232572096269643E-004  6.310968202356082E-004  6.390350410063901E-004
6.470731123024564E-004  6.552122900888004E-004  6.634538461285102E-004  6.717990681814852E-004
6.802492602056493E-004  6.888057425606985E-004  6.974698522144091E-004  7.062429429515412E-004
7.151263855853724E-004  7.241215681718868E-004  7.332298962266652E-004  7.424527929444967E-004
7.517916994217576E-004  7.612480748815855E-004  7.708233969018845E-004  7.805191616462021E-004
7.903368840975057E-004  8.002780982949018E-004  8.103443575733355E-004  8.205372348062979E-004
8.308583226515953E-004  8.413092338002012E-004  8.518916012282452E-004  8.626070784521681E-004
8.734573397870867E-004  8.844440806084101E-004  8.955690176167441E-004  9.068338891061297E-004
9.182404552356563E-004  9.297904983044882E-004  9.414858230303532E-004  9.533282568315349E-004
9.653196501124076E-004  9.774618765525688E-004  9.897568333996031E-004  1.002206441765532E-003
1.014812646926991E-003  1.027577418629185E-003  1.040502751393662E-003  1.053590664829964E-003
1.066843203951193E-003  1.080262439493548E-003  1.093850468239885E-003  1.107609413347340E-003
1.121541424679081E-003  1.135648679140220E-003  1.149933381017971E-003  1.164397762326063E-003
1.179044083153505E-003  1.193874632017723E-003  1.208891726222151E-003  1.224097712218310E-003
1.239494965972449E-003  1.255085893336794E-003  1.270872930425465E-003  1.286858543995125E-003
1.303045231830419E-003  1.319435523134253E-003  1.336031978922989E-003  1.352837192426610E-003
1.369853789493915E-003  1.387084429002819E-003  1.404531803275799E-003  1.422198638500584E-003
1.440087695156120E-003  1.458201768443905E-003  1.476543688724744E-003  1.495116321960997E-003
1.513922570164395E-003  1.532965371849481E-003  1.552247702492760E-003  1.571772574997626E-003
1.591543040165132E-003  1.611562187170683E-003  1.631833144046729E-003  1.652359078171521E-003
1.673143196764029E-003  1.694188747385067E-003  1.715499018444738E-003  1.737077339716252E-003
1.758927082856206E-003  1.781051661931423E-003  1.803454533952393E-003  1.826139199413451E-003
1.849109202839726E-003  1.872368133340986E-003  1.895919625172444E-003  1.919767358302613E-003
1.943915058988314E-003  1.968366500356909E-003  1.993125502995856E-003  2.018195935549692E-003
2.043581715324508E-003  2.069286808900044E-003  2.095315232749468E-003  2.121671053866959E-003
2.148358390403192E-003  2.175381412308794E-003  2.202744341985917E-003  2.230451454947994E-003
2.258507080487793E-003  2.286915602353889E-003  2.315681459435618E-003  2.344809146456675E-003
2.374303214677416E-003  2.404168272606008E-003  2.434408986718514E-003  2.465030082188038E-003
2.496036343623046E-003  2.527432615814970E-003  2.559223804495218E-003  2.591414877101699E-003
2.624010863555002E-003  2.657016857044326E-003  2.690438014823307E-003  2.724279559015842E-003
2.758546777432064E-003  2.793245024394566E-003  2.828379721575031E-003  2.863956358841376E-003
2.899980495115554E-003  2.936457759242150E-003  2.973393850867897E-003  3.010794541332259E-003
3.048665674569213E-003  3.087013168020378E-003  3.125843013559623E-003  3.165161278429313E-003
3.204974106188328E-003  3.245287717672006E-003  3.286108411964160E-003  3.327442567381322E-003
3.369296642469371E-003  3.411677177012695E-003  3.454590793056037E-003  3.498044195939215E-003
3.542044175344833E-003  3.586597606359194E-003  3.631711450546538E-003  3.677392757036805E-003
3.723648663627073E-003  3.770486397896853E-003  3.817913278337420E-003  3.865936715495332E-003
3.914564213130349E-003  3.963803369387911E-003  4.013661877986360E-003  4.064147529419103E-003
4.115268212171889E-003  4.167031913955407E-003  4.219446722953372E-003  4.272520829086330E-003
4.326262525291343E-003  4.380680208817783E-003  4.435782382539413E-003  4.491577656282985E-003
4.548074748173537E-003  4.605282485996620E-003  4.663209808577660E-003  4.721865767178665E-003
4.781259526912504E-003  4.841400368174969E-003  4.902297688094867E-003  4.963961002002333E-003
5.026399944915616E-003  5.089624273046586E-003  5.153643865325139E-003  5.218468724942819E-003
5.284108980915828E-003  5.350574889667708E-003  5.417876836631929E-003  5.486025337874630E-003
5.555031041737778E-003  5.624904730502995E-003  5.695657322076312E-003  5.767299871694109E-003
5.839843573650520E-003  5.913299763046568E-003  5.987679917561294E-003  6.062995659245168E-003
6.139258756336061E-003  6.216481125098049E-003  6.294674831683364E-003  6.373852094017743E-003
6.454025283709516E-003  6.535206927982685E-003  6.617409711634334E-003  6.700646479016650E-003
6.784930236043883E-003  6.870274152224545E-003  6.956691562719175E-003  7.044195970423979E-003
7.132801048080688E-003  7.222520640412958E-003  7.313368766289624E-003  7.405359620915186E-003
7.498507578047839E-003  7.592827192245393E-003  7.688333201139463E-003  7.785040527738246E-003
7.882964282758276E-003  7.982119766985504E-003  8.082522473666070E-003  8.184188090927167E-003
8.287132504228330E-003  8.391371798843583E-003  8.496922262374784E-003  8.603800387296601E-003
8.712022873533504E-003  8.821606631069142E-003  8.932568782588586E-003  9.044926666153759E-003
9.158697837912564E-003  9.273900074842061E-003  9.390551377526148E-003  9.508669972968198E-003
9.628274317439064E-003  9.749383099360905E-003  9.872015242227297E-003  9.996189907560057E-003
1.012192649790328E-002  1.024924465985502E-002  1.037816428713711E-002  1.050870552370361E-002
1.064088876688831E-002  1.077473467059190E-002  1.091026414850913E-002  1.104749837739667E-002
1.118645880038199E-002  1.132716713031390E-002  1.146964535315522E-002  1.161391573141814E-002
1.176000080764280E-002  1.190792340791955E-002  1.205770664545566E-002  1.220937392418671E-002
1.236294894243357E-002  1.251845569660531E-002  1.267591848494864E-002  1.283536191134460E-002
1.299681088915295E-002  1.316029064510495E-002  1.332582672324507E-002  1.349344498892230E-002
1.366317163283167E-002  1.383503317510661E-002  1.400905646946276E-002  1.418526870739391E-002
1.436369742242074E-002  1.454437049439299E-002  1.472731615384575E-002  1.491256298641050E-002
1.510013993728172E-002  1.529007631573962E-002  1.548240179972975E-002  1.567714644050028E-002
1.587434066729754E-002  1.607401529212067E-002  1.627620151453602E-002  1.648093092655221E-002
1.668823551755639E-002  1.689814767931267E-002  1.711070021102339E-002  1.732592632445407E-002
1.754385964912282E-002  1.776453423755500E-002  1.798798457060402E-002  1.821424556283904E-002
1.844335256800043E-002  1.867534138452386E-002  1.891024826113389E-002  1.914810990250793E-002
1.938896347501137E-002  1.963284661250493E-002  1.987979742222503E-002  2.012985449073812E-002
2.038305688996989E-002  2.063944418331037E-002  2.089905643179576E-002  2.116193420036809E-002
2.142811856421352E-002  2.169765111518044E-002  2.197057396827833E-002  2.224692976825824E-002
2.252676169627617E-002  2.281011347664020E-002  2.309702938364249E-002  2.338755424847725E-002
2.368173346624568E-002  2.397961300304907E-002  2.428123940317109E-002  2.458665979635042E-002
2.489592190514487E-002  2.520907405238816E-002  2.552616516874039E-002  2.584724480033361E-002
2.617236311651353E-002  2.650157091767848E-002  2.683491964321718E-002  2.717246137954621E-002
2.751424886824859E-002  2.786033551431481E-002  2.821077539448743E-002  2.856562326571071E-002
2.892493457368647E-002  2.928876546153760E-002  2.965717277858056E-002  3.003021408920816E-002
3.040794768188414E-002  3.079043257825087E-002  3.117772854235156E-002  3.156989608996859E-002
3.196699649807912E-002  3.236909181442984E-002  3.277624486723198E-002  3.318851927497843E-002
3.360597945638415E-002  3.402869064045184E-002  3.445671887666400E-002  3.489013104530338E-002
3.532899486790311E-002  3.577337891782836E-002  3.622335263099100E-002  3.667898631669924E-002
3.714035116864343E-002  3.760751927602035E-002  3.808056363479725E-002  3.855955815911759E-002
3.904457769285033E-002  3.953569802128438E-002  4.003299588297025E-002  4.053654898171061E-002
4.104643599870161E-002  4.156273660482703E-002  4.208553147310700E-002  4.261490229130332E-002
4.315093177468335E-002  4.369370367894441E-002  4.424330281330086E-002  4.479981505373558E-002
4.536332735641838E-002  4.593392777129302E-002  4.651170545583522E-002  4.709675068898371E-002
4.768915488524643E-002  4.828901060898431E-002  4.889641158887459E-002  4.951145273255617E-002
5.013423014145904E-002  5.076484112582039E-002  5.140338421988952E-002  5.204995919732401E-002
5.270466708677956E-002  5.336761018769588E-002  5.403889208628128E-002  5.471861767169813E-002
5.540689315245208E-002  5.610382607298732E-002  5.680952533049057E-002  5.752410119190658E-002
5.824766531116753E-002  5.898033074663913E-002  5.972221197878633E-002  6.047342492806099E-002
6.123408697301479E-002  6.200431696863985E-002  6.278423526494001E-002  6.357396372573586E-002
6.437362574770607E-002  6.518334627966853E-002  6.600325184210372E-002  6.683347054692390E-002
6.767413211749081E-002  6.852536790888515E-002  6.938731092843121E-002  7.026009585647941E-002
7.114385906745047E-002  7.203873865114412E-002  7.294487443431596E-002  7.386240800252566E-002
7.479148272225999E-002  7.573224376333415E-002  7.668483812157474E-002  7.764941464178836E-002
7.862612404101872E-002  7.961511893209658E-002  8.061655384748581E-002  8.163058526342935E-002
8.265737162439901E-002  8.369707336785273E-002  8.474985294930318E-002  8.581587486770188E-002
8.689530569114241E-002  8.798831408288704E-002  8.909507082772077E-002  9.021574885863663E-002
9.135052328385704E-002  9.249957141419464E-002  9.366307279075753E-002  9.484120921300297E-002
9.603416476714390E-002  9.724212585491274E-002  9.846528122268702E-002  9.970382199098152E-002
1.009579416843111E-001  1.022278362614294E-001  1.035137041459477E-001  1.048157462573391E-001
1.061341660423324E-001  1.074691695067016E-001  1.088209652474538E-001  1.101897644854240E-001
1.115757810982778E-001  1.129792316539309E-001  1.144003354443880E-001  1.158393145200075E-001
1.172963937241978E-001  1.187718007285488E-001  1.202657660684067E-001  1.217785231788954E-001
1.233103084313912E-001  1.248613611704561E-001  1.264319237512364E-001  1.280222415773304E-001
1.296325631391343E-001  1.312631400526681E-001  1.329142270988921E-001  1.345860822635164E-001
1.362789667773119E-001  1.379931451569280E-001  1.397288852462241E-001  1.414864582581206E-001
1.432661388169764E-001  1.450682050014996E-001  1.468929383881977E-001  1.487406240953751E-001
1.506115508276824E-001  1.525060109212282E-001  1.544243003892564E-001  1.563667189683990E-001
1.583335701655110E-001  1.603251613050935E-001  1.623418035773140E-001  1.643838120866304E-001
1.664515059010268E-001  1.685452081018686E-001  1.706652458343840E-001  1.728119503587823E-001
1.749856571020127E-001  1.771867057101764E-001  1.794154401015966E-001  1.816722085205560E-001
1.839573635917119E-001  1.862712623751932E-001  1.886142664223923E-001  1.909867418324587E-001
1.933890593095018E-001  1.958215942205153E-001  1.982847266540279E-001  2.007788414794935E-001
2.033043284074280E-001  2.058615820503020E-001  2.084510019842001E-001  2.110729928112551E-001
2.137279642228680E-001  2.164163310637239E-001  2.191385133966108E-001  2.218949365680567E-001
2.246860312747902E-001  2.275122336310376E-001  2.303739852366671E-001  2.332717332461893E-001
2.362059304386263E-001  2.391770352882590E-001  2.421855120362650E-001  2.452318307632569E-001
2.483164674627335E-001  2.514399041154550E-001  2.546026287647531E-001  2.578051355927886E-001
2.610479249977692E-001  2.643315036721367E-001  2.676563846817397E-001  2.710230875460005E-001
2.744321383190909E-001  2.778840696721303E-001  2.813794209764154E-001  2.849187383876990E-001
2.885025749315274E-001  2.921314905896518E-001  2.958060523875271E-001  2.995268344829098E-001
3.032944182555728E-001  3.071093923981454E-001  3.109723530080991E-001  3.148839036808886E-001
3.188446556042643E-001  3.228552276537729E-001  3.269162464894564E-001  3.310283466537700E-001
3.351921706707308E-001  3.394083691463126E-001  3.436776008701053E-001  3.480005329182514E-001
3.523778407576785E-001  3.568102083516425E-001  3.612983282665971E-001  3.658429017804108E-001
3.704446389919408E-001  3.751042589319887E-001  3.798224896756503E-001  3.846000684560785E-001
3.894377417796780E-001  3.943362655427478E-001  3.992964051495919E-001  4.043189356321156E-001
4.094046417709249E-001  4.145543182179514E-001  4.197687696206167E-001  4.250488107475612E-001
4.303952666159537E-001  4.358089726204009E-001  4.412907746634803E-001  4.468415292879139E-001
4.524621038104048E-001  4.581533764571575E-001  4.639162365011018E-001  4.697515844008445E-001
4.756603319413668E-001  4.816434023764932E-001  4.877017305731523E-001  4.938362631574501E-001
5.000479586625841E-001  5.063377876786146E-001  5.127067330041220E-001  5.191557897997714E-001
5.256859657438074E-001  5.322982811895076E-001  5.389937693246128E-001  5.457734763327662E-001
5.526384615569816E-001  5.595897976651669E-001  5.666285708177314E-001  5.737558808373013E-001
5.809728413805672E-001  5.882805801122973E-001  5.956802388815362E-001  6.031729739000210E-001
6.107599559228429E-001  6.184423704313783E-001  6.262214178185245E-001  6.340983135762622E-001
6.420742884855791E-001  6.501505888087824E-001  6.583284764842283E-001  6.666092293235050E-001
6.749941412110904E-001  6.834845223065260E-001  6.920816992491325E-001  7.007870153652974E-001
7.096018308783757E-001  7.185275231212249E-001  7.275654867514171E-001  7.367171339691581E-001
7.459838947379439E-001  7.553672170079989E-001  7.648685669425180E-001  7.744894291467588E-001
7.842313069000151E-001  7.940957223905050E-001  8.040842169532192E-001  8.141983513107544E-001
8.244397058171808E-001  8.348098807049772E-001  8.453104963350673E-001  8.559431934500077E-001
8.667096334303547E-001  8.776114985542591E-001  8.886504922603274E-001  8.998283394137847E-001
9.111467865759907E-001  9.226076022773416E-001  9.342125772936078E-001  9.459635249257468E-001
9.578622812832331E-001  9.699107055709550E-001  9.821106803797220E-001  9.944641119804180E-001
1.006972930621864E+000  1.019639090832422E+000  1.032464571725393E+000  1.045451377308263E+000
1.058601536795825E+000  1.071917104927252E+000  1.085400162287157E+000  1.099052815630682E+000
1.112877198212690E+000  1.126875470121086E+000  1.141049818614334E+000  1.155402458463224E+000
1.169935632296933E+000  1.184651610953441E+000  1.199552693834353E+000  1.214641209264187E+000
1.229919514854174E+000  1.245389997870648E+000  1.261055075608054E+000  1.276917195766661E+000
1.292978836835015E+000  1.309242508477210E+000  1.325710751925030E+000  1.342386140375016E+000
1.359271279390542E+000  1.376368807308933E+000  1.393681395653709E+000  1.411211749552023E+000
1.428962608157336E+000  1.446936745077422E+000  1.465136968807742E+000  1.483566123170282E+000
1.502227087757906E+000  1.521122778384296E+000  1.540256147539559E+000  1.559630184851550E+000
1.579247917553016E+000  1.599112410954604E+000  1.619226768923823E+000  1.639594134370029E+000
1.660217689735511E+000  1.681100657492754E+000  1.702246300647955E+000  1.723657923250878E+000
1.745338870911120E+000  1.767292531320862E+000  1.789522334784207E+000  1.812031754753173E+000
1.834824308370425E+000  1.857903557018841E+000  1.881273106877975E+000  1.904936609487539E+000
1.928897762317958E+000  1.953160309348111E+000  1.977728041650337E+000  2.002604797982790E+000
2.027794465389259E+000  2.053300979806525E+000  2.079128326679357E+000  2.105280541583254E+000
2.131761710854999E+000  2.158575972231169E+000  2.185727515494657E+000  2.213220583129336E+000
2.241059470982964E+000  2.269248528938403E+000  2.297792161593311E+000  2.326694828948363E+000
2.355961047104132E+000  2.385595388966754E+000  2.415602484962434E+000  2.445987023760970E+000
2.476753753008369E+000  2.507907480068667E+000  2.539453072775105E+000  2.571395460190722E+000
2.603739633378539E+000  2.636490646181421E+000  2.669653616011748E+000  2.703233724651031E+000
2.737236219059563E+000  2.771666412196274E+000  2.806529683848889E+000  2.841831481474532E+000
2.877577321050909E+000  2.913772787938177E+000  2.950423537751677E+000  2.987535297245634E+000
3.025113865207971E+000  3.063165113366392E+000  3.101694987305832E+000  3.140709507397488E+000
3.180214769739498E+000  3.220216947109473E+000  3.260722289929020E+000  3.301737127240359E+000
3.343267867695266E+000  3.385321000556432E+000  3.427903096711420E+000  3.471020809699396E+000
3.514680876750734E+000  3.558890119839738E+000  3.603655446750585E+000  3.648983852156678E+000
3.694882418713588E+000  3.741358318165720E+000  3.788418812466918E+000  3.836071254915161E+000
3.884323091301529E+000  3.933181861073633E+000  3.982655198513651E+000  4.032750833931211E+000
4.083476594871268E+000  4.134840407337169E+000  4.186850297029117E+000  4.239514390598189E+000
4.292840916916151E+000  4.346838208361234E+000  4.401514702120081E+000  4.456878941506089E+000
4.512939577294298E+000  4.569705369073105E+000  4.627185186612969E+000  4.685388011252318E+000
4.744322937300925E+000  4.803999173460887E+000  4.864426044265512E+000  4.925612991536307E+000
4.987569575858262E+000  5.050305478073738E+000  5.113830500795091E+000  5.178154569936360E+000
5.243287736264221E+000  5.309240176968419E+000  5.376022197252006E+000  5.443644231941516E+000
5.512116847117447E+000  5.581450741765229E+000  5.651656749446957E+000  5.722745839994176E+000
5.794729121221911E+000  5.867617840664304E+000  5.941423387332063E+000  6.016157293492006E+000
6.091831236469031E+000  6.168457040470681E+000  6.246046678434727E+000  6.324612273899960E+000
6.404166102900507E+000  6.484720595884016E+000  6.566288339653898E+000  6.648882079336068E+000
6.732514720370390E+000  6.817199330527171E+000  6.902949141949055E+000  6.989777553218525E+000
7.077698131451500E+000  7.166724614417203E+000  7.256870912684716E+000  7.348151111796561E+000
7.440579474469554E+000  7.534170442823409E+000  7.628938640637345E+000  7.724898875635069E+000
7.822066141798547E+000  7.920455621710799E+000  8.020082688928234E+000  8.120962910382799E+000
8.223112048814334E+000  8.326546065233552E+000  8.431281121415953E+000  8.537333582427150E+000
8.644720019179944E+000  8.753457211023544E+000  8.863562148365421E+000  8.975052035326039E+000
9.087944292427061E+000  9.202256559313341E+000  9.318006697509142E+000  9.435212793209070E+000
9.553893160104025E+000  9.674066342242794E+000  9.795751116929578E+000  9.918966497657985E+000
1.004373173708195E+001  1.017006633002397E+001  1.029799001652122E+001  1.042752278490997E+001
1.055868487494881E+001  1.069149678098119E+001  1.082597925513761E+001  1.096215331057827E+001
1.110004022477639E+001  1.123966154284282E+001  1.138103908089260E+001  1.152419492945368E+001
1.166915145691864E+001  1.181593131303982E+001  1.196455743246834E+001  1.211505303833779E+001
1.226744164589273E+001  1.242174706616316E+001  1.257799340968491E+001  1.273620509026704E+001
1.289640682880655E+001  1.305862365715100E+001  1.322288092200986E+001  1.338920428891494E+001
1.355761974623070E+001  1.372815360921501E+001  1.390083252413091E+001  1.407568347241017E+001
1.425273377486919E+001  1.443201109597794E+001  1.461354344818260E+001  1.479735919628252E+001
1.498348706186232E+001  1.517195612777968E+001  1.536279584270958E+001  1.555603602574576E+001
1.575170687105997E+001  1.594983895261988E+001  1.615046322896633E+001  1.635361104805067E+001
1.655931415213296E+001  1.676760468274171E+001  1.697851518569610E+001  1.719207861619130E+001
1.740832834394783E+001  1.762729815842563E+001  1.784902227410371E+001  1.807353533582623E+001
1.830087242421586E+001  1.853106906115518E+001  1.876416121533707E+001  1.900018530788484E+001
1.923917821804315E+001  1.948117728894044E+001  1.972622033342387E+001  1.997434563996772E+001
2.022559197865594E+001  2.047999860724011E+001  2.073760527727354E+001  2.099845224032252E+001
2.126258025425575E+001  2.153003058961275E+001  2.180084503605257E+001  2.207506590888345E+001
2.235273605567463E+001  2.263389886295153E+001  2.291859826297479E+001  2.320687874060489E+001
2.349878534025297E+001  2.379436367291909E+001  2.409365992331914E+001  2.439672085710114E+001
2.470359382815257E+001  2.501432678599951E+001  2.532896828329878E+001  2.564756748342452E+001
2.597017416814993E+001  2.629683874542584E+001  2.662761225725707E+001  2.696254638767776E+001
2.730169347082727E+001  2.764510649912733E+001  2.799283913156229E+001  2.834494570206343E+001
2.870148122799872E+001  2.906250141876954E+001  2.942806268451515E+001  2.979822214492708E+001
3.017303763817411E+001  3.055256772993962E+001  3.093687172257260E+001  3.132600966435380E+001
3.172004235887833E+001  3.211903137455636E+001  3.252303905423334E+001  3.293212852493114E+001
3.334636370771194E+001  3.376580932766577E+001  3.419053092402412E+001  3.462059486040052E+001
3.505606833515998E+001  3.549701939191897E+001  3.594351693017719E+001  3.639563071608339E+001
3.685343139333648E+001  3.731699049422363E+001  3.778638045079754E+001  3.826167460619388E+001
3.874294722609142E+001  3.923027351031617E+001  3.972372960459149E+001  4.022339261243611E+001
4.072934060721155E+001  4.124165264432136E+001  4.176040877356365E+001  4.228569005163897E+001
4.281757855481580E+001  4.335615739175487E+001  4.390151071649518E+001  4.445372374160327E+001