<UPF version="2.0.1">
<PP_INFO>
Generated in analytical, separable form
Author: Goedecker/Hartwigsen/Hutter/Teter
Generation date: Phys.Rev.B58, 3641 (1998); B54, 1703 (1996)
Pseudopotential type: NC
Element: Ni
Functional: SLA-PW-PBX-PBC

Suggested minimum cutoff for wavefunctions:   0. Ry
Suggested minimum cutoff for charge density:   0. Ry
The Pseudo was generated with a Non-Relativistic Calculation
Local Potential: unknown format, L component and cutoff radius: -3   0.0000

Valence configuration:
nl pn  l   occ       Rcut    Rcut US       E pseu

Generation configuration: not available.
Converted from CPMD format using cpmd2upf v.5.0.1 - PG 10Jul2012
Atomic orbitals could not be generated by ld1.x - use with care
</PP_INFO>
<!--                               -->
<!-- END OF HUMAN READABLE SECTION -->
<!--                               -->
<PP_HEADER generated="Generated in analytical, separable form" author="Goedecker/Hartwigsen/Hutter/Teter" date="Phys.Rev.B58, 3641 (1998); B54, 1703 (1996)" comment="Atomic orbitals could not be generated by ld1.x - use with care" element="Ni" pseudo_type="NC" relativistic="no" is_ultrasoft="F" is_paw="F" is_coulomb="F" has_so="F" has_wfc="F" has_gipaw="F" paw_as_gipaw="F" core_correction="F" functional="SLA-PW-PBX-PBC" z_valence="1.800000000000000E+001" total_psenergy="0.000000000000000E+000" wfc_cutoff="0.000000000000000E+000" rho_cutoff="0.000000000000000E+000" l_max="2" l_max_rho="0" l_local="-3" mesh_size="1195" number_of_wfc="0" number_of_proj="5"/>
<PP_MESH dx="1.250000000000000E-002" mesh="1195" xmin="-7.000000000000000E+000" rmax="9.877015555346573E+001" zmesh="2.800000000000000E+001">
<PP_R type="real" size="1195" columns="4">
3.256721305551844E-005  3.297685816675079E-005  3.339165597916365E-005  3.381167130575907E-005
3.423696977478642E-005  3.466761783999675E-005  3.510368279102638E-005  3.554523276391112E-005
3.599233675173251E-005  3.644506461539838E-005  3.690348709455846E-005  3.736767581865781E-005
3.783770331812893E-005  3.831364303572488E-005  3.879556933799492E-005  3.928355752690422E-005
3.977768385160012E-005  4.027802552032616E-005  4.078466071248599E-005  4.129766859085920E-005
4.181712931397052E-005  4.234312404861474E-005  4.287573498253931E-005  4.341504533728624E-005
4.396113938119575E-005  4.451410244257320E-005  4.507402092302194E-005  4.564098231094373E-005
4.621507519520886E-005  4.679638927899857E-005  4.738501539382113E-005  4.798104551370453E-005
4.858457276956764E-005  4.919569146377204E-005  4.981449708485710E-005  5.044108632246006E-005
5.107555708242408E-005  5.171800850209627E-005  5.236854096581796E-005  5.302725612061025E-005
5.369425689205616E-005  5.436964750038327E-005  5.505353347674823E-005  5.574602167972615E-005
5.644722031200775E-005  5.715723893730587E-005  5.787618849747524E-005  5.860418132984736E-005
5.934133118478335E-005  6.008775324344790E-005  6.084356413580621E-005  6.160888195884794E-005
6.238382629503999E-005  6.316851823101145E-005  6.396308037647392E-005  6.476763688337911E-005
6.558231346531811E-005  6.640723741716433E-005  6.724253763496348E-005  6.808834463607416E-005
6.894479057956104E-005  6.981200928684525E-005  7.069013626261416E-005  7.157930871599426E-005
7.247966558199050E-005  7.339134754319496E-005  7.431449705176891E-005  7.524925835170122E-005
7.619577750134672E-005  7.715420239624838E-005  7.812468279224589E-005  7.910737032887560E-005
8.010241855306440E-005  8.110998294312167E-005  8.213022093303343E-005  8.316329193706121E-005
8.420935737465117E-005  8.526858069565619E-005  8.634112740587512E-005  8.742716509291368E-005
8.852686345236995E-005  8.964039431434995E-005  9.076793167031637E-005  9.190965170027499E-005
9.306573280030352E-005  9.423635561042577E-005  9.542170304283752E-005  9.662196031048667E-005
9.783731495601315E-005  9.906795688105316E-005  1.003140783759112E-004  1.015758741496060E-004
1.028535413602944E-004  1.041472796460774E-004  1.054572911561945E-004  1.067837805826093E-004
1.081269551919934E-004  1.094870248581122E-004  1.108642020946182E-004  1.122587020882564E-004
1.136707427324881E-004  1.151005446615366E-004  1.165483312848624E-004  1.180143288220708E-004
1.194987663382597E-004  1.210018757798111E-004  1.225238920106334E-004  1.240650528488590E-004
1.256255991040046E-004  1.272057746145975E-004  1.288058262862761E-004  1.304260041303694E-004
1.320665613029619E-004  1.337277541444493E-004  1.354098422195931E-004  1.371130883580773E-004
1.388377586955761E-004  1.405841227153387E-004  1.423524532902961E-004  1.441430267256985E-004
1.459561228022881E-004  1.477920248200156E-004  1.496510196423064E-004  1.515333977408836E-004
1.534394532411550E-004  1.553694839681703E-004  1.573237914931573E-004  1.593026811806429E-004
1.613064622361666E-004  1.633354477545955E-004  1.653899547690445E-004  1.674703043004147E-004
1.695768214075528E-004  1.717098352380425E-004  1.738696790796344E-004  1.760566904123233E-004
1.782712109610792E-004  1.805135867492434E-004  1.827841681525948E-004  1.850833099540973E-004
1.874113713993352E-004  1.897687162526456E-004  1.921557128539579E-004  1.945727341763475E-004
1.970201578843133E-004  1.994983663927893E-004  2.020077469268967E-004  2.045486915824495E-004
2.071215973872195E-004  2.097268663629733E-004  2.123649055882891E-004  2.150361272621628E-004
2.177409487684157E-004  2.204797927409110E-004  2.232530871295915E-004  2.260612652673481E-004
2.289047659377280E-004  2.317840334434960E-004  2.346995176760578E-004  2.376516741857562E-004
2.406409642530524E-004  2.436678549606010E-004  2.467328192662333E-004  2.498363360768577E-004
2.529788903232899E-004  2.561609730360250E-004  2.593830814219604E-004  2.626457189420870E-004
2.659493953901552E-004  2.692946269723310E-004  2.726819363878558E-004  2.761118529107168E-004
2.795849124723491E-004  2.831016577453751E-004  2.866626382283984E-004  2.902684103318647E-004
2.939195374650011E-004  2.976165901238503E-004  3.013601459804120E-004  3.051507899729050E-004
3.089891143971655E-004  3.128757189991938E-004  3.168112110688664E-004  3.207962055348259E-004
3.248313250605648E-004  3.289172001417193E-004  3.330544692045831E-004  3.372437787058647E-004
3.414857832336969E-004  3.457811456099173E-004  3.501305369936367E-004  3.545346369861076E-004
3.589941337369138E-004  3.635097240514956E-004  3.680821135000264E-004  3.727120165276609E-004
3.774001565661662E-004  3.821472661469617E-004  3.869540870155772E-004  3.918213702475528E-004
3.967498763657967E-004  4.017403754594166E-004  4.067936473040492E-004  4.119104814837011E-004
4.170916775141230E-004  4.223380449677364E-004  4.276504036001294E-004  4.330295834781464E-004
4.384764251095874E-004  4.439917795745386E-004  4.495765086583571E-004  4.552314849863239E-004
4.609575921599955E-004  4.667557248952676E-004  4.726267891621760E-004  4.785717023264581E-004
4.845913932928905E-004  4.906868026504337E-004  4.968588828192011E-004  5.031085981992759E-004
5.094369253214020E-004  5.158448529995671E-004  5.223333824855079E-004  5.289035276251576E-004
5.355563150170608E-004  5.422927841727838E-004  5.491139876793369E-004  5.560209913636461E-004
5.630148744590893E-004  5.700967297741289E-004  5.772676638630670E-004  5.845287971989439E-004
5.918812643486163E-004  5.993262141500347E-004  6.068648098917523E-004  6.144982294946922E-004
6.222276656961970E-004  6.300543262363987E-004  6.379794340469304E-004  6.460042274420107E-004
6.541299603119349E-004  6.623579023189959E-004  6.706893390958717E-004  6.791255724465092E-004
6.876679205495333E-004  6.963177181642141E-004  7.050763168390279E-004  7.139450851228367E-004
7.229254087787282E-004  7.320186910005449E-004  7.412263526321337E-004  7.505498323893583E-004
7.599905870848991E-004  7.695500918558847E-004  7.792298403943847E-004  7.890313451808015E-004
7.989561377202000E-004  8.090057687816061E-004  8.191818086403190E-004  8.294858473232705E-004
8.399194948574681E-004  8.504843815215671E-004  8.611821581006026E-004  8.720144961439298E-004
8.829830882264071E-004  8.940896482128624E-004  9.053359115258909E-004  9.167236354170155E-004
9.282545992412624E-004  9.399306047351898E-004  9.517534762984102E-004  9.637250612786602E-004
9.758472302604489E-004  9.881218773573422E-004  1.000550920507922E-003  1.013136301775468E-003
1.025879987651408E-003  1.038783969362588E-003  1.051850263182403E-003  1.065080910745847E-003
1.078477979368518E-003  1.092043562369646E-003  1.105779779399175E-003  1.119688776768960E-003
1.133772727788141E-003  1.148033833102717E-003  1.162474321039408E-003  1.177096447953834E-003
1.191902498583074E-003  1.206894786402663E-003  1.222075653988073E-003  1.237447473380751E-003
1.253012646458751E-003  1.268773605312034E-003  1.284732812622488E-003  1.300892762048723E-003
1.317255978615715E-003  1.333825019109344E-003  1.350602472475896E-003  1.367590960226595E-003
1.384793136847215E-003  1.402211690212851E-003  1.419849342007904E-003  1.437708848151352E-003
1.455792999227365E-003  1.474104620921341E-003  1.492646574461426E-003  1.511421757065583E-003
1.530433102394292E-003  1.549683581008942E-003  1.569176200835979E-003  1.588914007636912E-003
1.608900085484208E-003  1.629137557243193E-003  1.649629585060004E-003  1.670379370855678E-003
1.691390156826462E-003  1.712665225950410E-003  1.734207902500356E-003  1.756021552563342E-003
1.778109584566569E-003  1.800475449809978E-003  1.823122643005515E-003  1.846054702823192E-003
1.869275212444015E-003  1.892787800119851E-003  1.916596139740362E-003  1.940703951407053E-003
1.965115002014544E-003  1.989833105839158E-003  2.014862125134906E-003  2.040205970736975E-003
2.065868602672803E-003  2.091854030780840E-003  2.118166315337098E-003  2.144809567689570E-003
2.171787950900642E-003  2.199105680397580E-003  2.226767024631194E-003  2.254776305742800E-003
2.283137900239557E-003  2.311856239678306E-003  2.340935811358013E-003  2.370381159020914E-003
2.400196883562492E-003  2.430387643750365E-003  2.460958156952235E-003  2.491913199872988E-003
2.523257609301057E-003  2.554996282864188E-003  2.587134179794697E-003  2.619676321704362E-003
2.652627793369068E-003  2.685993743523300E-003  2.719779385664655E-003  2.753989998868455E-003
2.788630928612613E-003  2.823707587612881E-003  2.859225456668591E-003  2.895190085519046E-003
2.931607093710673E-003  2.968482171475092E-003  3.005821080618229E-003  3.043629655420601E-003
3.081913803548948E-003  3.120679506979301E-003  3.159932822931690E-003  3.199679884816597E-003
3.239926903193304E-003  3.280680166740319E-003  3.321946043237983E-003  3.363730980563453E-003
3.406041507698202E-003  3.448884235748172E-003  3.492265858976789E-003  3.536193155850941E-003
3.580672990100134E-003  3.625712311788967E-003  3.671318158403086E-003  3.717497655948810E-003
3.764258020066585E-003  3.811606557158436E-003  3.859550665529618E-003  3.908097836544605E-003
3.957255655797640E-003  4.007031804297992E-003  4.057434059670135E-003  4.108470297369015E-003
4.160148491910606E-003  4.212476718117948E-003  4.265463152382846E-003  4.319116073943453E-003
4.373443866177927E-003  4.428455017914329E-003  4.484158124757045E-003  4.540561890429845E-003
4.597675128135865E-003  4.655506761934704E-003  4.714065828136793E-003  4.773361476715373E-003
4.833402972736169E-003  4.894199697805088E-003  4.955761151534117E-003  5.018096953025649E-003
5.081216842375487E-003  5.145130682194761E-003  5.209848459150979E-003  5.275380285528459E-003
5.341736400808396E-003  5.408927173268807E-003  5.476963101604589E-003  5.545854816567965E-003
5.615613082629560E-003  5.686248799660368E-003  5.757773004634885E-003  5.830196873355659E-003
5.903531722199520E-003  5.977789009885806E-003  6.052980339266790E-003  6.129117459140671E-003
6.206212266087328E-003  6.284276806327199E-003  6.363323277603518E-003  6.443364031088244E-003
6.524411573311953E-003  6.606478568118012E-003  6.689577838641325E-003  6.773722369311975E-003
6.858925307884077E-003  6.945199967490128E-003  7.032559828721217E-003  7.121018541733401E-003
7.210589928380552E-003  7.301287984374074E-003  7.393126881469738E-003  7.486120969682067E-003
7.580284779526541E-003  7.675633024290023E-003  7.772180602329748E-003  7.869942599401211E-003
7.968934291015353E-003  8.069171144825391E-003  8.170668823043662E-003  8.273443184888889E-003
8.377510289064204E-003  8.482886396266364E-003  8.589587971726509E-003  8.697631687782885E-003
8.807034426485947E-003  8.917813282236200E-003  9.029985564455233E-003  9.143568800290363E-003
9.258580737353273E-003  9.375039346493119E-003  9.492962824604522E-003  9.612369597470855E-003
9.733278322643311E-003  9.855707892356185E-003  9.979677436478835E-003  1.010520632550475E-002
1.023231417357822E-002  1.036102084155912E-002  1.049134644012618E-002  1.062331133291931E-002
1.075693613972151E-002  1.089224173968069E-002  1.102924927457214E-002  1.116798015210192E-002
1.130845604925190E-002  1.145069891566681E-002  1.159473097708392E-002  1.174057473880587E-002
1.188825298921713E-002  1.203778880334480E-002  1.218920554646406E-002  1.234252687774909E-002
1.249777675396984E-002  1.265497943323532E-002  1.281415947878399E-002  1.297534176282183E-002
1.313855147040866E-002  1.330381410339332E-002  1.347115548439847E-002  1.364060176085532E-002
1.381217940908933E-002  1.398591523845711E-002  1.416183639553546E-002  1.433997036836310E-002
1.452034499073569E-002  1.470298844655495E-002  1.488792927423245E-002  1.507519637114877E-002
1.526481899816881E-002  1.545682678421384E-002  1.565124973089105E-002  1.584811821718143E-002
1.604746300418649E-002  1.624931523993477E-002  1.645370646424878E-002  1.666066861367316E-002
1.687023402646482E-002  1.708243544764586E-002  1.729730603412009E-002  1.751487935985380E-002
1.773518942112177E-002  1.795827064181933E-002  1.818415787884105E-002  1.841288642752730E-002
1.864449202717915E-002  1.887901086664277E-002  1.911647958996394E-002  1.935693530211383E-002
1.960041557478667E-002  1.984695845227041E-002  2.009660245739128E-002  2.034938659753297E-002
2.060535037073167E-002  2.086453377184772E-002  2.112697729881483E-002  2.139272195896806E-002
2.166180927545120E-002  2.193428129370493E-002  2.221018058803644E-002  2.248955026827179E-002
2.277243398649191E-002  2.305887594385330E-002  2.334892089749455E-002  2.364261416752979E-002
2.394000164412998E-002  2.424112979469338E-002  2.454604567110616E-002  2.485479691709436E-002
2.516743177566835E-002  2.548399909666082E-002  2.580454834435973E-002  2.612912960523722E-002
2.645779359577565E-002  2.679059167039222E-002  2.712757582946317E-002  2.746879872744896E-002
2.781431368112161E-002  2.816417467789560E-002  2.851843638426348E-002  2.887715415433760E-002
2.924038403849936E-002  2.960818279215717E-002  2.998060788461456E-002  3.035771750804995E-002
3.073957058660922E-002  3.112622678561279E-002  3.151774652087842E-002  3.191419096816129E-002
3.231562207271286E-002  3.272210255895993E-002  3.313369594030547E-002  3.355046652905272E-002
3.397247944645408E-002  3.439980063288651E-002  3.483249685815475E-002  3.527063573192435E-002
3.571428571428573E-002  3.616351612645125E-002  3.661839716158676E-002  3.707899989577949E-002
3.754539629914373E-002  3.801765924706642E-002  3.849586253159400E-002  3.898008087296258E-002
3.947038993127315E-002  3.996686631831360E-002  4.046958760952953E-002  4.097863235614545E-002
4.149408009743870E-002  4.201601137316753E-002  4.254450773615566E-002  4.307965176503504E-002
4.362152707714894E-002  4.417021834161733E-002  4.472581129256660E-002  4.528839274252571E-002
4.585805059599079E-002  4.643487386316041E-002  4.701895267384365E-002  4.761037829154297E-002
4.820924312771441E-002  4.881564075620703E-002  4.942966592788400E-002  5.005141458542763E-002
5.068098387833064E-002  5.131847217807589E-002  5.196397909350721E-002  5.261760548639343E-002
5.327945348718825E-002  5.394962651098833E-002  5.462822927369212E-002  5.531536780836192E-002
5.601114948179176E-002  5.671568301128371E-002  5.742907848163513E-002  5.815144736233967E-002
5.888290252500460E-002  5.962355826098727E-002  6.037353029925329E-002  6.113293582445947E-002
6.190189349526414E-002  6.268052346286783E-002  6.346894738978712E-002  6.426728846886462E-002
6.507567144251820E-002  6.589422262223217E-002  6.672306990829369E-002  6.756234280977751E-002
6.841217246478203E-002  6.927269166091982E-002  7.014403485606599E-002  7.102633819936760E-002
7.191973955251706E-002  7.282437851129343E-002  7.374039642737454E-002  7.466793643042345E-002
7.560714345045270E-002  7.655816424047000E-002  7.752114739940870E-002  7.849624339534653E-002
7.948360458901674E-002  8.048338525761463E-002  8.149574161890373E-002  8.252083185562518E-002
8.355881614021400E-002  8.460985665982645E-002  8.567411764168210E-002  8.675176537872462E-002
8.784296825560538E-002  8.894789677499400E-002  9.006672358421962E-002  9.119962350224743E-002
9.234677354699454E-002  9.350835296298936E-002  9.468454324937885E-002  9.587552818828826E-002
9.708149387353737E-002  9.830262873971805E-002  9.953912359163755E-002  1.007911716341322E-001
1.020589685022559E-001  1.033427122918486E-001  1.046426035904894E-001  1.059588455088382E-001
1.072916437123727E-001  1.086412064535238E-001  1.100077446042155E-001  1.113914716888141E-001
1.127926039174918E-001  1.142113602200099E-001  1.156479622799272E-001  1.171026345692384E-001
1.185756043834482E-001  1.200671018770868E-001  1.215773600996722E-001  1.231066150321242E-001
1.246551056236372E-001  1.262230738290168E-001  1.278107646464850E-001  1.294184261559623E-001
1.310463095578302E-001  1.326946692121823E-001  1.343637626785683E-001  1.360538507562379E-001
1.377651975248920E-001  1.394980703859448E-001  1.412527401043064E-001  1.430294808506902E-001
1.448285702444527E-001  1.466502893969719E-001  1.484949229555718E-001  1.503627591479987E-001
1.522540898274578E-001  1.541692105182159E-001  1.561084204617771E-001  1.580720226636406E-001
1.600603239406453E-001  1.620736349689109E-001  1.641122703323818E-001  1.661765485719812E-001
1.682667922353837E-001  1.703833279274145E-001  1.725264863610814E-001  1.746966024092503E-001
1.768940151569685E-001  1.791190679544486E-001  1.813721084707172E-001  1.836534887479389E-001
1.859635652564233E-001  1.883026989503248E-001  1.906712553240421E-001  1.930696044693275E-001
1.954981211331143E-001  1.979571847760724E-001  2.004471796318986E-001  2.029684947673552E-001
2.055215241430619E-001  2.081066666750527E-001  2.107243262971079E-001  2.133749120238688E-001
2.160588380147482E-001  2.187765236386425E-001  2.215283935394596E-001  2.243148777024702E-001
2.271364115214941E-001  2.299934358669308E-001  2.328863971546470E-001  2.358157474157296E-001
2.387819443671169E-001  2.417854514831171E-001  2.448267380678279E-001  2.479062793284657E-001
2.510245564496177E-001  2.541820566684285E-001  2.573792733507311E-001  2.606167060681370E-001
2.638948606760947E-001  2.672142493929315E-001  2.705753908798875E-001  2.739788103221584E-001
2.774250395109564E-001  2.809146169266034E-001  2.844480878226706E-001  2.880260043111741E-001
2.916489254488449E-001  2.953174173244812E-001  2.990320531474024E-001  3.027934133370135E-001
3.066020856134963E-001  3.104586650896431E-001  3.143637543638433E-001  3.183179636142408E-001
3.223219106940760E-001  3.263762212282260E-001  3.304815287109606E-001  3.346384746049263E-001
3.388477084413761E-001  3.431098879216610E-001  3.474256790199960E-001  3.517957560875211E-001
3.562208019576688E-001  3.607015080528592E-001  3.652385744925359E-001  3.698327102025605E-001
3.744846330259849E-001  3.791950698352147E-001  3.839647566455843E-001  3.887944387303623E-001
3.936848707372002E-001  3.986368168060491E-001  4.036510506885568E-001  4.087283558689688E-001
4.138695256865499E-001  4.190753634595433E-001  4.243466826106931E-001  4.296843067943407E-001
4.350890700251243E-001  4.405618168082950E-001  4.461034022716719E-001  4.517146922992583E-001
4.573965636665372E-001  4.631499041774693E-001  4.689756128032151E-001  4.748745998225996E-001
4.808477869643463E-001  4.868961075510987E-001  4.930205066452537E-001  4.992219411966300E-001
5.055013801919931E-001  5.118598048064620E-001  5.182982085568187E-001  5.248175974567482E-001
5.314189901740302E-001  5.381034181897069E-001  5.448719259592559E-001  5.517255710757867E-001
5.586654244352921E-001  5.656925704039795E-001  5.728081069877027E-001  5.800131460035302E-001
5.873088132534665E-001  5.946962487003625E-001  6.021766066460372E-001  6.097510559116379E-001
6.174207800202732E-001  6.251869773819390E-001  6.330508614807732E-001  6.410136610646661E-001
6.490766203372524E-001  6.572409991523234E-001  6.655080732106792E-001  6.738791342594604E-001
6.823554902939878E-001  6.909384657621364E-001  6.996294017712857E-001  7.084296562978690E-001
7.173406043995598E-001  7.263636384301293E-001  7.355001682570013E-001  7.447516214815506E-001
7.541194436621652E-001  7.636050985401198E-001  7.732100682682882E-001  7.829358536427311E-001
7.927839743372017E-001  8.027559691405938E-001  8.128533961973835E-001  8.230778332510925E-001
8.334308778908115E-001  8.439141478008295E-001  8.545292810133983E-001  8.652779361646782E-001
8.761617927539058E-001  8.871825514058160E-001  8.983419341363705E-001  9.096416846218248E-001
9.210835684711812E-001  9.326693735020707E-001  9.444009100201001E-001  9.562800111017191E-001
9.683085328806396E-001  9.804883548378612E-001  9.928213800953457E-001  1.005309535713381E+000
1.017954772991689E+000  1.030759067774323E+000  1.043724420758391E+000  1.056852857806678E+000
1.070146430264179E+000  1.083607215278640E+000  1.097237316125105E+000  1.111038862534560E+000
1.125014011026713E+000  1.139164945246947E+000  1.153493876307525E+000  1.168003043133078E+000
1.182694712810440E+000  1.197571180942891E+000  1.212634772008842E+000  1.227887839725043E+000
1.243332767414359E+000  1.258971968378163E+000  1.274807886273425E+000  1.290842995494534E+000
1.307079801559929E+000  1.323520841503593E+000  1.340168684271465E+000  1.357025931122849E+000
1.374095216036862E+000  1.391379206124000E+000  1.408880602042877E+000  1.426602138422213E+000
1.444546584288122E+000  1.462716743496779E+000  1.481115455172528E+000  1.499745594151500E+000
1.518610071430814E+000  1.537711834623426E+000  1.557053868418697E+000  1.576639195048759E+000
1.596470874760745E+000  1.616552006294957E+000  1.636885727369053E+000  1.657475215168321E+000
1.678323686842118E+000  1.699434400006561E+000  1.720810653253530E+000  1.742455786666087E+000
1.764373182340365E+000  1.786566264914027E+000  1.809038502101381E+000  1.831793405235205E+000
1.854834529815410E+000  1.878165476064588E+000  1.901789889490559E+000  1.925711461455984E+000
1.949933929755153E+000  1.974461079198016E+000  1.999296742201577E+000  2.024444799388708E+000
2.049909180194509E+000  2.075693863480287E+000  2.101802878155265E+000  2.128240303806107E+000
2.155010271334357E+000  2.182116963601906E+000  2.209564616084569E+000  2.237357517533888E+000
2.265500010647262E+000  2.293996492746496E+000  2.322851416464893E+000  2.352069290442991E+000
2.381654680033043E+000  2.411612208012362E+000  2.441946555305648E+000  2.472662461716380E+000
2.503764726667426E+000  2.535258209950962E+000  2.567147832487824E+000  2.599438577096417E+000
2.632135489271280E+000  2.665243677971464E+000  2.698768316418810E+000  2.732714642906282E+000
2.767087961616461E+000  2.801893643450327E+000  2.837137126866479E+000  2.872823918730904E+000
2.908959595177433E+000  2.945549802479037E+000  2.982600257930045E+000  3.020116750739503E+000
3.058105142935738E+000  3.096571370282318E+000  3.135521443205530E+000  3.174961447733512E+000
3.214897546447211E+000  3.255335979443302E+000  3.296283065309210E+000  3.337745202110416E+000
3.379728868390148E+000  3.422240624181677E+000  3.465287112033337E+000  3.508875058046431E+000
3.553011272926209E+000  3.597702653046040E+000  3.642956181524992E+000  3.688778929318959E+000
3.735178056325508E+000  3.782160812502640E+000  3.829734539001592E+000  3.877906669313918E+000
3.926684730432986E+000  3.976076344030084E+000  4.026089227645330E+000  4.076731195893537E+000
4.128010161685277E+000  4.179934137463283E+000  4.232511236454405E+000  4.285749673937338E+000
4.339657768526249E+000  4.394243943470594E+000  4.449516727971266E+000  4.505484758513291E+000
4.562156780215319E+000  4.619541648196035E+000  4.677648328957811E+000  4.736485901787738E+000
4.796063560176269E+000  4.856390613253749E+000  4.917476487244954E+000  4.979330726941975E+000
5.041962997195607E+000  5.105383084425500E+000  5.169600898149321E+000  5.234626472531113E+000
5.300469967949169E+000  5.367141672583607E+000  5.434652004023915E+000  5.503011510896742E+000
5.572230874514111E+000  5.642320910542415E+000  5.713292570692381E+000  5.785156944430298E+000
5.857925260710780E+000  5.931608889731289E+000  6.006219344708771E+000  6.081768283678612E+000
6.158267511316226E+000  6.235728980781582E+000  6.314164795586874E+000  6.393587211487744E+000
6.474008638398263E+000  6.555441642330000E+000  6.637898947355505E+000  6.721393437596446E+000
6.805938159236791E+000  6.891546322561307E+000  6.978231304019677E+000  7.066006648316628E+000
7.154886070528280E+000  7.244883458245181E+000  7.336012873742263E+000  7.428288556176094E+000
7.521724923809805E+000  7.616336576265931E+000  7.712138296807654E+000  7.809145054648721E+000
7.907372007292399E+000  8.006834502899896E+000  8.107548082688504E+000  8.209528483359966E+000
8.312791639559368E+000  8.417353686364951E+000  8.523230961809274E+000  8.630440009432027E+000
8.738997580865021E+000  8.848920638449654E+000  8.960226357887306E+000  9.072932130923109E+000
9.187055568063391E+000  9.302614501327394E+000  9.419626987033544E+000  9.538111308620790E+000
9.658085979505456E+000  9.779569745973948E+000  9.902581590111936E+000  1.002714073277034E+001
1.015326663656860E+001  1.028097900893582E+001  1.041029780519001E+001  1.054124323165616E+001
1.067383574882359E+001  1.080809607454285E+001  1.094404518726301E+001  1.108170432930951E+001
1.122109501020337E+001  1.136223901002207E+001  1.150515838280273E+001  1.164987545998814E+001
1.179641285391603E+001  1.194479346135233E+001  1.209504046706884E+001  1.224717734746587E+001
1.240122787424053E+001  1.255721611810103E+001  1.271516645252784E+001  1.287510355758206E+001
1.303705242376175E+001  1.320103835590675E+001  1.336708697715258E+001  1.353522423293414E+001
1.370547639503972E+001  1.387787006571603E+001  1.405243218182486E+001  1.422919001905200E+001
1.440817119616912E+001  1.458940367934930E+001  1.477291578653674E+001  1.495873619187157E+001
1.514689393017016E+001  1.533741840146194E+001  1.553033937558317E+001  1.572568699682853E+001
1.592349178866133E+001  1.612378465848270E+001  1.632659690246105E+001  1.653196021042213E+001
1.673990667080061E+001  1.695046877565402E+001  1.716367942573962E+001  1.737957193565527E+001
1.759818003904488E+001  1.781953789386936E+001  1.804368008774389E+001  1.827064164334229E+001
1.850045802386937E+001  1.873316513860216E+001  1.896879934850076E+001  1.920739747188989E+001
1.944899679021177E+001  1.969363505385140E+001  1.994135048803522E+001  2.019218179880376E+001
2.044616817905969E+001  2.070334931469166E+001  2.096376539077534E+001  2.122745709785244E+001
2.149446563828865E+001  2.176483273271170E+001  2.203860062653013E+001  2.231581209653434E+001
2.259651045758050E+001  2.288073956935860E+001  2.316854384324566E+001  2.345996824924499E+001
2.375505832301294E+001  2.405386017297391E+001  2.435642048752484E+001  2.466278654233049E+001
2.497300620771021E+001  2.528712795611786E+001  2.560520086971571E+001  2.592727464804362E+001
2.625339961578476E+001  2.658362673062882E+001  2.691800759123436E+001  2.725659444529113E+001
2.759944019768393E+001  2.794659841875913E+001  2.829812335269508E+001  2.865406992597785E+001
2.901449375598371E+001  2.937945115966937E+001  2.974899916237171E+001  3.012319550671798E+001
3.050209866164830E+001  3.088576783155149E+001  3.127426296551593E+001  3.166764476669673E+001
3.206597470180066E+001  3.246931501069047E+001  3.287772871611003E+001  3.329127963353172E+001
3.371003238112782E+001  3.413405238986706E+001  3.456340591373849E+001  3.499816004010372E+001
3.543838270017951E+001  3.588414267965218E+001  3.633550962942540E+001  3.679255407650339E+001
3.725534743501085E+001  3.772396201735161E+001  3.819847104550762E+001  3.867894866247986E+001
3.916546994387356E+001  3.965811090962875E+001  4.015694853589859E+001  4.066206076707714E+001
4.117352652797816E+001  4.169142573616737E+001  4.221583931444972E+001  4.274684920351370E+001
4.328453837473491E+001  4.382899084314024E+001  4.438029168053560E+001  4.493852702879845E+001
4.550378411333764E+001  4.607615125672276E+001  4.665571789248439E+001  4.724257457908852E+001
4.783681301408640E+001  4.843852604844244E+001  4.904780770104254E+001  4.966475317338446E+001
5.028945886445346E+001  5.092202238578472E+001  5.156254257671537E+001  5.221111951982850E+001
5.286785455659094E+001  5.353285030318833E+001  5.420621066655904E+001  5.488804086062972E+001
5.557844742275552E+001  5.627753823036636E+001  5.698542251782323E+001  5.770221089348626E+001
5.842801535699739E+001  5.916294931678084E+001  5.990712760776298E+001  6.066066650931585E+001
6.142368376342586E+001  6.219629859309138E+001  6.297863172095136E+001  6.377080538814882E+001
6.457294337343089E+001  6.538517101248972E+001  6.620761521754643E+001  6.704040449718126E+001
6.788366897641359E+001  6.873754041703388E+001  6.960215223819196E+001  7.047763953724392E+001
7.136413911086139E+001  7.226178947640646E+001  7.317073089357498E+001  7.409110538631262E+001
7.502305676500642E+001  7.596673064895525E+001  7.692227448912357E+001  7.788983759118040E+001
7.886957113882896E+001  7.986162821742936E+001  8.086616383791839E+001  8.188333496103066E+001
8.291330052182353E+001  8.395622145451135E+001  8.501226071761171E+001  8.608158331940790E+001
8.716435634373217E+001  8.826074897607241E+001  8.937093253000805E+001  9.049508047397808E+001