<UPF version="2.0.1">
<PP_INFO>
Generated in analytical, separable form
Author: Goedecker/Hartwigsen/Hutter/Teter
Generation date: Phys.Rev.B58, 3641 (1998); B54, 1703 (1996)
Pseudopotential type: NC
Element: Pd
Functional: SLA-PW-PBX-PBC

Suggested minimum cutoff for wavefunctions:   0. Ry
Suggested minimum cutoff for charge density:   0. Ry
The Pseudo was generated with a Non-Relativistic Calculation
Local Potential: unknown format, L component and cutoff radius: -3   0.0000

Valence configuration:
nl pn  l   occ       Rcut    Rcut US       E pseu

Generation configuration: not available.
Converted from CPMD format using cpmd2upf v.5.0.1 - PG 10Jul2012
Atomic orbitals could not be generated by ld1.x - use with care
</PP_INFO>
<!--                               -->
<!-- END OF HUMAN READABLE SECTION -->
<!--                               -->
<PP_HEADER generated="Generated in analytical, separable form" author="Goedecker/Hartwigsen/Hutter/Teter" date="Phys.Rev.B58, 3641 (1998); B54, 1703 (1996)" comment="Atomic orbitals could not be generated by ld1.x - use with care" element="Pd" pseudo_type="NC" relativistic="no" is_ultrasoft="F" is_paw="F" is_coulomb="F" has_so="F" has_wfc="F" has_gipaw="F" paw_as_gipaw="F" core_correction="F" functional="SLA-PW-PBX-PBC" z_valence="1.800000000000000E+001" total_psenergy="0.000000000000000E+000" wfc_cutoff="0.000000000000000E+000" rho_cutoff="0.000000000000000E+000" l_max="2" l_max_rho="0" l_local="-3" mesh_size="1235" number_of_wfc="0" number_of_proj="6"/>
<PP_MESH dx="1.250000000000000E-002" mesh="1235" xmin="-7.000000000000000E+000" rmax="9.912271257387090E+001" zmesh="4.600000000000000E+001">
<PP_R type="real" size="1235" columns="4">
1.982352099031557E-005  2.007287018845700E-005  2.032535581340396E-005  2.058101731654900E-005
2.083989464552217E-005  2.110202825043280E-005  2.136745909018997E-005  2.163622863890242E-005
2.190837889235892E-005  2.218395237459032E-005  2.246299214451385E-005  2.274554180266127E-005
2.303164549799152E-005  2.332134793478906E-005  2.361469437964908E-005  2.391173066855040E-005
2.421250321401746E-005  2.451705901237244E-005  2.482544565107843E-005  2.513771131617517E-005
2.545390479980814E-005  2.577407550785245E-005  2.609827346763263E-005  2.642654933573945E-005
2.675895440594524E-005  2.709554061721847E-005  2.743636056183945E-005  2.778146749361792E-005
2.813091533621409E-005  2.848475869156435E-005  2.884305284841286E-005  2.920585379095058E-005
2.957321820756291E-005  2.994520349968733E-005  3.032186779078258E-005  3.070326993541047E-005
3.108946952843205E-005  3.148052691431947E-005  3.187650319658485E-005  3.227746024732798E-005
3.268346071690375E-005  3.309456804371155E-005  3.351084646410762E-005  3.393236102244200E-005
3.435917758122211E-005  3.479136283140357E-005  3.522898430281101E-005  3.567211037468969E-005
3.612081028638986E-005  3.657515414818568E-005  3.703521295222987E-005  3.750105858364657E-005
3.797276383176347E-005  3.845040240148523E-005  3.893404892481021E-005  3.942377897249163E-005
3.991966906584581E-005  4.042179668870872E-005  4.093024029954298E-005  4.144507934369732E-005
4.196639426581976E-005  4.249426652242754E-005  4.302877859463471E-005  4.357001400103998E-005
4.411805731077682E-005  4.467299415672737E-005  4.523491124890281E-005  4.580389638799205E-005
4.638003847908061E-005  4.696342754554249E-005  4.755415474310620E-005  4.815231237409820E-005
4.875799390186529E-005  4.937129396537841E-005  4.999230839402035E-005  5.062113422255899E-005
5.125786970630941E-005  5.190261433648638E-005  5.255546885575008E-005  5.321653527394746E-005
5.388591688405127E-005  5.456371827829997E-005  5.525004536454040E-005  5.594500538277609E-005
5.664870692192388E-005  5.736125993678090E-005  5.808277576520545E-005  5.881336714551362E-005
5.955314823409497E-005  6.030223462324975E-005  6.106074335925028E-005  6.182879296062973E-005
6.260650343670094E-005  6.339399630630800E-005  6.419139461681406E-005  6.499882296332740E-005
6.581640750816990E-005  6.664427600059007E-005  6.748255779672410E-005  6.833138387980826E-005
6.919088688064493E-005  7.006120109832666E-005  7.094246252122061E-005  7.183480884821701E-005
7.273837951024504E-005  7.365331569205895E-005  7.457976035429857E-005  7.551785825582725E-005
7.646775597635062E-005  7.742960193932021E-005  7.840354643512458E-005  7.938974164457268E-005
8.038834166267244E-005  8.139950252270827E-005  8.242338222062191E-005  8.346014073969921E-005
8.450994007556805E-005  8.557294426151051E-005  8.664931939409328E-005  8.773923365912083E-005
8.884285735791450E-005  8.996036293392254E-005  9.109192499966477E-005  9.223772036401610E-005
9.339792805983348E-005  9.457272937192976E-005  9.576230786540013E-005  9.696684941430439E-005
9.818654223071013E-005  9.942157689410159E-005  1.006721463811575E-004  1.019384460959046E-004
1.032206739002495E-004  1.045190301448954E-004  1.058337177006470E-004  1.071649419901098E-004
1.085129110197873E-004  1.098778354125829E-004  1.112599284407099E-004  1.126594060590158E-004
1.140764869387257E-004  1.155113925016103E-004  1.169643469545831E-004  1.184355773247332E-004
1.199253134947994E-004  1.214337882390891E-004  1.229612372598502E-004  1.245078992240997E-004
1.260740158009162E-004  1.276598316992011E-004  1.292655947059151E-004  1.308915557247947E-004
1.325379688155574E-004  1.342050912335980E-004  1.358931834701861E-004  1.376025092931684E-004
1.393333357881822E-004  1.410859334003888E-004  1.428605759767309E-004  1.446575408087212E-004
1.464771086757710E-004  1.483195638890614E-004  1.501851943359681E-004  1.520742915250438E-004
1.539871506315678E-004  1.559240705436674E-004  1.578853539090194E-004  1.598713071821399E-004
1.618822406722683E-004  1.639184685918537E-004  1.659803091056513E-004  1.680680843804363E-004
1.701821206353429E-004  1.723227481928370E-004  1.744903015303294E-004  1.766851193324394E-004
1.789075445439137E-004  1.811579244232132E-004  1.834366105967726E-004  1.857439591139422E-004
1.880803305026225E-004  1.904460898255963E-004  1.928416067375708E-004  1.952672555429375E-004
1.977234152542569E-004  2.002104696514813E-004  2.027288073419202E-004  2.052788218209611E-004
2.078609115335546E-004  2.104754799364714E-004  2.131229355613441E-004  2.158036920785003E-004
2.185181683615997E-004  2.212667885530843E-004  2.240499821304509E-004  2.268681839733588E-004
2.297218344315794E-004  2.326113793938028E-004  2.355372703573079E-004  2.384999644985104E-004
2.414999247443979E-004  2.445376198448623E-004  2.476135244459430E-004  2.507281191639920E-004
2.538818906607705E-004  2.570753317194917E-004  2.603089413218179E-004  2.635832247258282E-004
2.668986935449663E-004  2.702558658279801E-004  2.736552661398695E-004  2.770974256438493E-004
2.805828821843451E-004  2.841121803710324E-004  2.876858716639332E-004  2.913045144595832E-004
2.949686741782812E-004  2.986789233524379E-004  3.024358417160355E-004  3.062400162952114E-004
3.100920414999838E-004  3.139925192171278E-004  3.179420589042222E-004  3.219412776848786E-004
3.259908004451675E-004  3.300912599312597E-004  3.342432968482920E-004  3.384475599604802E-004
3.427047061924891E-004  3.470154007320784E-004  3.513803171340407E-004  3.558001374254441E-004
3.602755522122012E-004  3.648072607869777E-004  3.693959712384579E-004  3.740424005619866E-004
3.787472747715981E-004  3.835113290134601E-004  3.883353076807403E-004  3.932199645299195E-004
3.981660627985691E-004  4.031743753246062E-004  4.082456846670524E-004  4.133807832283099E-004
4.185804733779767E-004  4.238455675782173E-004  4.291768885107126E-004  4.345752692052050E-004
4.400415531696607E-004  4.455765945220708E-004  4.511812581239074E-004  4.568564197152615E-004
4.626029660516777E-004  4.684217950427124E-004  4.743138158922342E-004  4.802799492404879E-004
4.863211273079478E-004  4.924382940409776E-004  4.986324052593246E-004  5.049044288054690E-004
5.112553446958502E-004  5.176861452739974E-004  5.241978353655842E-004  5.307914324354355E-004
5.374679667465087E-004  5.442284815208728E-004  5.510740331027162E-004  5.580056911234008E-004
5.650245386685946E-004  5.721316724475068E-004  5.793282029642497E-004  5.866152546913584E-004
5.939939662454906E-004  6.014654905653387E-004  6.090309950917787E-004  6.166916619502848E-004
6.244486881356398E-004  6.323032856989668E-004  6.402566819371150E-004  6.483101195844284E-004
6.564648570069239E-004  6.647221683989151E-004  6.730833439821064E-004  6.815496902071932E-004
6.901225299579990E-004  6.988032027581754E-004  7.075930649805093E-004  7.164934900588558E-004
7.255058687027409E-004  7.346316091146643E-004  7.438721372101311E-004  7.532288968404570E-004
7.627033500183704E-004  7.722969771464558E-004  7.820112772484710E-004  7.918477682035703E-004
8.018079869834785E-004  8.118934898926440E-004  8.221058528114149E-004  8.324466714422753E-004
8.429175615591742E-004  8.535201592599960E-004  8.642561212222025E-004  8.751271249616924E-004
8.861348690949179E-004  8.972810736042945E-004  9.085674801069547E-004  9.199958521268765E-004
9.315679753704388E-004  9.432856580054430E-004  9.551507309436396E-004  9.671650481268157E-004
9.793304868164743E-004  9.916489478871610E-004  1.004122356123481E-003  1.016752660520847E-003
1.029541834590020E-003  1.042491876665467E-003  1.055604810217608E-003  1.068882684168991E-003
1.082327573214433E-003  1.095941578145204E-003  1.109726826177270E-003  1.123685471283682E-003
1.137819694531139E-003  1.152131704420779E-003  1.166623737233264E-003  1.181298057378206E-003
1.196156957747983E-003  1.211202760076009E-003  1.226437815299508E-003  1.241864503926854E-003
1.257485236409532E-003  1.273302453518772E-003  1.289318626726929E-003  1.305536258593652E-003
1.321957883156913E-003  1.338586066328962E-003  1.355423406297249E-003  1.372472533930400E-003
1.389736113189296E-003  1.407216841543316E-003  1.424917450391834E-003  1.442840705490991E-003
1.460989407385865E-003  1.479366391848048E-003  1.497974530318752E-003  1.516816730357471E-003
1.535895936096296E-003  1.555215128699940E-003  1.574777326831554E-003  1.594585587124394E-003
1.614643004659433E-003  1.634952713448965E-003  1.655517886926312E-003  1.676341738441668E-003
1.697427521764199E-003  1.718778531590450E-003  1.740398104059142E-003  1.762289617272463E-003
1.784456491823888E-003  1.806902191332664E-003  1.829630222985009E-003  1.852644138082105E-003
1.875947532595012E-003  1.899544047726531E-003  1.923437370480159E-003  1.947631234236189E-003
1.972129419335055E-003  1.996935753668020E-003  2.022054113275294E-003  2.047488422951667E-003
2.073242656859775E-003  2.099320839151062E-003  2.125727044594567E-003  2.152465399213616E-003
2.179540080930516E-003  2.206955320219371E-003  2.234715400767096E-003  2.262824660142754E-003
2.291287490475313E-003  2.320108339139918E-003  2.349291709452811E-003  2.378842161374977E-003
2.408764312224650E-003  2.439062837398778E-003  2.469742471103560E-003  2.500808007094183E-003
2.532264299423847E-003  2.564116263202229E-003  2.596368875363471E-003  2.629027175443841E-003
2.662096266369173E-003  2.695581315252200E-003  2.729487554199940E-003  2.763820281131210E-003
2.798584860604440E-003  2.833786724655906E-003  2.869431373648483E-003  2.905524377131097E-003
2.942071374708972E-003  2.979078076924836E-003  3.016550266151202E-003  3.054493797493873E-003
3.092914599706818E-003  3.131818676118550E-003  3.171212105570161E-003  3.211101043365149E-003
3.251491722231198E-003  3.292390453294056E-003  3.333803627063663E-003  3.375737714432674E-003
3.418199267687558E-003  3.461194921532398E-003  3.504731394125583E-003  3.548815488129531E-003
3.593454091773621E-003  3.638654179930490E-003  3.684422815205873E-003  3.730767149042147E-003
3.777694422835765E-003  3.825211969068730E-003  3.873327212454315E-003  3.922047671097192E-003
3.971380957668145E-003  4.021334780593572E-003  4.071916945259937E-003  4.123135355233377E-003
4.174998013494656E-003  4.227513023689643E-003  4.280688591395523E-003  4.334533025402940E-003
4.389054739014249E-003  4.444262251358132E-003  4.500164188720710E-003  4.556769285893432E-003
4.614086387537895E-003  4.672124449567840E-003  4.730892540548542E-003  4.790399843113781E-003
4.850655655400649E-003  4.911669392502412E-003  4.973450587939620E-003  5.036008895149758E-003
5.099354088995602E-003  5.163496067292569E-003  5.228444852355266E-003  5.294210592563495E-003
5.360803563947968E-003  5.428234171795948E-003  5.496512952277099E-003  5.565650574089786E-003
5.635657840128079E-003  5.706545689169725E-003  5.778325197585362E-003  5.851007581069215E-003
5.924604196391581E-003  5.999126543173331E-003  6.074586265682769E-003  6.150995154655064E-003
6.228365149134568E-003  6.306708338340335E-003  6.386036963555064E-003  6.466363420037841E-003
6.547700258960917E-003  6.630060189370855E-003  6.713456080174347E-003  6.797900962148998E-003
6.883408029979421E-003  6.969990644318929E-003  7.057662333877169E-003  7.146436797534005E-003
7.236327906479992E-003  7.327349706383790E-003  7.419516419586821E-003  7.512842447325535E-003
7.607342371981641E-003  7.703030959360627E-003  7.799923160998951E-003  7.898034116500247E-003
7.997379155900923E-003  8.097973802065502E-003  8.199833773112109E-003  8.302974984868457E-003
8.407413553358724E-003  8.513165797321720E-003  8.620248240760717E-003  8.728677615525366E-003
8.838470863926071E-003  8.949645141381274E-003  9.062217819098013E-003  9.176206486786210E-003
9.291628955407106E-003  9.408503259956248E-003  9.526847662281509E-003  9.646680653936522E-003
9.768020959070039E-003  9.890887537351602E-003  1.001529958693404E-002  1.014127654745323E-002
1.026883810306554E-002  1.039800418552357E-002  1.052879497729049E-002  1.066123091469361E-002
1.079533269111760E-002  1.093112126023785E-002  1.106861783929455E-002  1.120784391240792E-002
1.134882123393513E-002  1.149157183186951E-002  1.163611801128240E-002  1.178248235780842E-002
1.193068774117449E-002  1.208075731877330E-002  1.223271453928165E-002  1.238658314632442E-002
1.254238718218450E-002  1.270015099155948E-002  1.285989922536555E-002  1.302165684458925E-002
1.318544912418769E-002  1.335130165703778E-002  1.351924035793522E-002  1.368929146764370E-002
1.386148155699508E-002  1.403583753104114E-002  1.421238663325755E-002  1.439115644980074E-002
1.457217491381825E-002  1.475547030981336E-002  1.494107127806462E-002  1.512900681910092E-002
1.531930629823290E-002  1.551199945014137E-002  1.570711638352331E-002  1.590468758579657E-002
1.610474392786344E-002  1.630731666893439E-002  1.651243746141236E-002  1.672013835583850E-002
1.693045180590011E-002  1.714341067350167E-002  1.735904823389951E-002  1.757739818090115E-002
1.779849463213005E-002  1.802237213435654E-002  1.824906566889582E-002  1.847861065707388E-002
1.871104296576213E-002  1.894639891298170E-002  1.918471527357817E-002  1.942602928496774E-002
1.967037865295565E-002  1.991780155762778E-002  2.016833665931637E-002  2.042202310464079E-002
2.067890053262423E-002  2.093900908088744E-002  2.120238939192028E-002  2.146908261943221E-002
2.173913043478262E-002  2.201257503349206E-002  2.228945914183542E-002  2.256982602351795E-002
2.285371948643532E-002  2.314118388951869E-002  2.343226414966591E-002  2.372700574875983E-002
2.402545474077496E-002  2.432765775897350E-002  2.463366202319189E-002  2.494351534721897E-002
2.525726614626703E-002  2.557496344453676E-002  2.589665688287736E-002  2.622239672654307E-002
2.655223387304718E-002  2.688621986011490E-002  2.722440687373619E-002  2.756684775632000E-002
2.791359601495091E-002  2.826470582974982E-002  2.862023206233961E-002  2.898023026441746E-002
2.934475668643486E-002  2.971386828638689E-002  3.008762273871200E-002  3.046607844330378E-002
3.084929453463604E-002  3.123733089100272E-002  3.163024814387395E-002  3.202810768736991E-002
3.243097168785371E-002  3.283890309364507E-002  3.325196564485607E-002  3.367022388335073E-002
3.409374316282977E-002  3.452258965904226E-002  3.495683038012573E-002  3.539653317707632E-002
3.584176675435063E-002  3.629260068060094E-002  3.674910539954548E-002  3.721135224097533E-002
3.767941343189991E-002  3.815336210783259E-002  3.863327232421825E-002  3.911921906800455E-002
3.961127826935891E-002  4.010952681353262E-002  4.061404255287442E-002  4.112490431899501E-002
4.164219193508471E-002  4.216598622838597E-002  4.269636904282278E-002  4.323342325178897E-002
4.377723277109734E-002  4.432788257209166E-002  4.488545869492364E-002  4.545004826199688E-002
4.602173949157991E-002  4.660062171159043E-002  4.718678537355312E-002  4.778032206673267E-002
4.838132453244497E-002  4.898988667854803E-002  4.960610359411532E-002  5.023007156429359E-002
5.086188808534765E-002  5.150165187989436E-002  5.214946291232824E-002  5.280542240444107E-002
5.346963285123806E-002  5.414219803695287E-002  5.482322305126412E-002  5.551281430571583E-002
5.621107955034450E-002  5.691812789051526E-002  5.763406980396973E-002  5.835901715808851E-002
5.909308322737057E-002  5.983638271113273E-002  6.058903175143156E-002  6.135114795121090E-002
6.212285039267750E-002  6.290425965590787E-002  6.369549783768919E-002  6.449668857059714E-002
6.530795704231381E-002  6.612943001518837E-002  6.696123584604419E-002  6.780350450623464E-002
6.865636760195150E-002  6.951995839478864E-002  7.039441182256440E-002  7.127986452040598E-002
7.217645484209889E-002  7.308432288170501E-002  7.400361049545263E-002  7.493446132390166E-002
7.587702081438788E-002  7.683143624374937E-002  7.779785674133870E-002  7.877643331232487E-002
7.976731886128796E-002  8.077066821611099E-002  8.178663815217199E-002  8.281538741684048E-002
8.385707675428210E-002  8.491186893057509E-002  8.597992875914302E-002  8.706142312650710E-002
8.815652101836254E-002  8.926539354598292E-002  9.038821397295674E-002  9.152515774226005E-002
9.267640250366999E-002  9.384212814152275E-002  9.502251680282088E-002  9.621775292569426E-002
9.742802326821885E-002  9.865351693759793E-002  9.989442541971068E-002  1.011509426090320E-001
1.024232648389292E-001  1.037115909123393E-001  1.050161221328322E-001  1.063370623360654E-001
1.076746179216330E-001  1.090289978853166E-001  1.104004138517409E-001  1.117890801074410E-001
1.131952136343446E-001  1.146190341436760E-001  1.160607641102865E-001  1.175206288074167E-001
1.189988563418957E-001  1.204956776897832E-001  1.220113267324600E-001  1.235460402931727E-001
1.251000581740377E-001  1.266736231935104E-001  1.282669812243265E-001  1.298803812319202E-001
1.315140753133250E-001  1.331683187365650E-001  1.348433699805406E-001  1.365394907754167E-001
1.382569461435182E-001  1.399960044407405E-001  1.417569373984808E-001  1.435400201660963E-001
1.453455313538972E-001  1.471737530766800E-001  1.490249709978083E-001  1.508994743738487E-001
1.527975560997673E-001  1.547195127546956E-001  1.566656446482711E-001  1.586362558675616E-001
1.606316543245794E-001  1.626521518043931E-001  1.646980640138445E-001  1.667697106308790E-001
1.688674153544952E-001  1.709915059553238E-001  1.731423143268430E-001  1.753201765372364E-001
1.775254328819056E-001  1.797584279366407E-001  1.820195106114623E-001  1.843090342051386E-001
1.866273564603891E-001  1.889748396197828E-001  1.913518504823394E-001  1.937587604608422E-001
1.961959456398723E-001  1.986637868345723E-001  2.011626696501500E-001  2.036929845421290E-001
2.062551268773593E-001  2.088494969957937E-001  2.114765002730410E-001  2.141365471837085E-001
2.168300533655375E-001  2.195574396843491E-001  2.223191322998044E-001  2.251155627319934E-001
2.279471679288604E-001  2.308143903344785E-001  2.337176779581817E-001  2.366574844445684E-001
2.396342691443827E-001  2.426484971862907E-001  2.457006395495563E-001  2.487911731376332E-001
2.519205808526825E-001  2.550893516710264E-001  2.582979807195523E-001  2.615469693530769E-001
2.648368252326843E-001  2.681680624050491E-001  2.715412013827568E-001  2.749567692256355E-001
2.784152996231096E-001  2.819173329775900E-001  2.854634164889135E-001  2.890541042398432E-001
2.926899572826456E-001  2.963715437267557E-001  3.000994388275457E-001  3.038742250762096E-001
3.076964922907784E-001  3.115668377082813E-001  3.154858660780636E-001  3.194541897562815E-001
3.234724288015836E-001  3.275412110719955E-001  3.316611723230253E-001  3.358329563070006E-001
3.400572148736560E-001  3.443346080719875E-001  3.486658042533843E-001  3.530514801760618E-001
3.574923211108057E-001  3.619890209480467E-001  3.665422823062835E-001  3.711528166418666E-001
3.758213443601663E-001  3.805485949281368E-001  3.853353069882967E-001  3.901822284741446E-001
3.950901167270232E-001  4.000597386144577E-001  4.050918706499786E-001  4.101872991144542E-001
4.153468201789491E-001  4.205712400291265E-001  4.258613749912175E-001  4.312180516595724E-001
4.366421070258190E-001  4.421343886096439E-001  4.476957545912182E-001  4.533270739452916E-001
4.590292265769702E-001  4.648031034592033E-001  4.706496067720015E-001  4.765696500434016E-001
4.825641582922097E-001  4.886340681725354E-001  4.947803281201464E-001  5.010038985006650E-001
5.073057517596243E-001  5.136868725744180E-001  5.201482580081555E-001  5.266909176654563E-001
5.333158738502035E-001  5.400241617252793E-001  5.468168294743125E-001  5.536949384654586E-001
5.606595634172408E-001  5.677117925664777E-001  5.748527278383218E-001  5.820834850184378E-001
5.894051939273458E-001  5.968189985969590E-001  6.043260574493409E-001  6.119275434777098E-001
6.196246444297238E-001  6.274185629930660E-001  6.353105169833685E-001  6.433017395344993E-001
6.513934792912397E-001  6.595870006043899E-001  6.678835837283247E-001  6.762845250210364E-001
6.847911371466946E-001  6.934047492807504E-001  7.021267073176238E-001  7.109583740810038E-001
7.199011295367896E-001  7.289563710087164E-001  7.381255133966862E-001  7.474099893978522E-001
7.568112497304793E-001  7.663307633606209E-001  7.759700177316499E-001  7.857305189966728E-001
7.956137922538697E-001  8.056213817847955E-001  8.157548512956743E-001  8.260157841617344E-001
8.364057836746120E-001  8.469264732928693E-001  8.575794968956643E-001  8.683665190396077E-001
8.792892252188568E-001  8.903493221284744E-001  9.015485379311038E-001  9.128886225270002E-001
9.243713478274522E-001  9.359985080316509E-001  9.477719199070332E-001  9.596934230731576E-001
9.717648802891491E-001  9.839881777447562E-001  9.963652253550760E-001  1.008897957058978E+000
1.021588331121289E+000  1.034438330438776E+000  1.047449962849975E+000  1.060625261448923E+000
1.073966284902831E+000  1.087475117773756E+000  1.101153870844319E+000  1.115004681447516E+000
1.129029713800684E+000  1.143231159343662E+000  1.157611237081210E+000  1.172172193929730E+000
1.186916305068354E+000  1.201845874294444E+000  1.216963234383569E+000  1.232270747453996E+000
1.247770805335788E+000  1.263465829944523E+000  1.279358273659726E+000  1.295450619708065E+000
1.311745382551348E+000  1.328245108279421E+000  1.344952375007999E+000  1.361869793281497E+000
1.379000006480942E+000  1.396345691236998E+000  1.413909557848196E+000  1.431694350704430E+000
1.449702848715765E+000  1.467937865746656E+000  1.486402251055612E+000  1.505098889740405E+000
1.524030703188868E+000  1.543200649535368E+000  1.562611724123023E+000  1.582266959971732E+000
1.602169428252084E+000  1.622322238765239E+000  1.642728540428841E+000  1.663391521769041E+000
1.684314411418715E+000  1.705500478621938E+000  1.726953033744813E+000  1.748675428792724E+000
1.770671057934090E+000  1.792943358030718E+000  1.815495809174810E+000  1.838331935232741E+000
1.861455304395667E+000  1.884869529737063E+000  1.908578269777279E+000  1.932585229055181E+000
1.956894158706998E+000  1.981508857052444E+000  2.006433170188215E+000  2.031670992588949E+000
2.057226267715742E+000  2.083102988632325E+000  2.109305198628988E+000  2.135836991854349E+000
2.162702513955084E+000  2.189905962723677E+000  2.217451588754343E+000  2.245343696107192E+000
2.273586642980744E+000  2.302184842392911E+000  2.331142762870534E+000  2.360464929147602E+000
2.390155922872252E+000  2.420220383322660E+000  2.450663008131940E+000  2.481488554022153E+000
2.512701837547560E+000  2.544307735847215E+000  2.576311187407029E+000  2.608717192831423E+000
2.641530815624673E+000  2.674757182982101E+000  2.708401486591205E+000  2.742468983442873E+000
2.776964996652802E+000  2.811894916293238E+000  2.847264200235189E+000  2.883078375001232E+000
2.919343036629033E+000  2.956063851545760E+000  2.993246557453451E+000  3.030896964225550E+000
3.069020954814718E+000  3.107624486172044E+000  3.146713590177848E+000  3.186294374584156E+000
3.226373023969060E+000  3.266955800703065E+000  3.308049045927600E+000  3.349659180545843E+000
3.391792706225981E+000  3.434456206417122E+000  3.477656347377971E+000  3.521399879218442E+000
3.565693636954388E+000  3.610544541575567E+000  3.655959601127078E+000  3.701945911804373E+000
3.748510659062051E+000  3.795661118736615E+000  3.843404658183314E+000  3.891748737427323E+000
3.940700910329377E+000  3.990268825766087E+000  4.040460228825090E+000  4.091282962015228E+000
4.142744966491960E+000  4.194854283298187E+000  4.247619054620673E+000  4.301047525062295E+000
4.355148042930257E+000  4.409929061540545E+000  4.465399140538769E+000  4.521566947237623E+000
4.578441257971186E+000  4.636030959466218E+000  4.694345050230746E+000  4.753392641960091E+000
4.813182960960591E+000  4.873725349591241E+000  4.935029267723437E+000  4.997104294219110E+000
5.059960128427441E+000  5.123606591700405E+000  5.188053628927384E+000  5.253311310089060E+000
5.319389831830883E+000  5.386299519056311E+000  5.454050826540100E+000  5.522654340561893E+000
5.592120780560325E+000  5.662461000807979E+000  5.733685992107375E+000  5.805806883508308E+000
5.878834944046799E+000  5.952781584505882E+000  6.027658359198569E+000  6.103476967773251E+000
6.180249257041759E+000  6.257987222830502E+000  6.336703011854786E+000  6.416408923616794E+000
6.497117412327404E+000  6.578841088852171E+000  6.661592722681832E+000  6.745385243927530E+000
6.830231745341185E+000  6.916145484361262E+000  7.003139885184273E+000  7.091228540862349E+000
7.180425215427150E+000  7.270743846040551E+000  7.362198545172339E+000  7.454803602805312E+000
7.548573488668147E+000  7.643522854496278E+000  7.739666536321292E+000  7.837019556789080E+000
7.935597127507150E+000  8.035414651421497E+000  8.136487725223308E+000  8.238832141785997E+000
8.342463892632875E+000  8.447399170435844E+000  8.553654371545568E+000  8.661246098553390E+000
8.770191162885554E+000  8.880506587430011E+000  8.992209609196278E+000  9.105317682008781E+000
9.219848479234013E+000  9.335819896542050E+000  9.453250054702796E+000  9.572157302417368E+000
9.692560219185156E+000  9.814477618206860E+000  9.937928549324116E+000  1.006293230199608E+001
1.018950840831341E+001  1.031767664605027E+001  1.044745704175455E+001  1.057886987387712E+001
1.071193567594037E+001  1.084667523974657E+001  1.098310961862672E+001  1.112126013073009E+001
1.126114836235527E+001  1.140279617132305E+001  1.154622569039176E+001  1.169145933071559E+001
1.183851978534629E+001  1.198743003277911E+001  1.213821334054317E+001  1.229089326883707E+001
1.244549367421025E+001  1.260203871329057E+001  1.276055284655890E+001  1.292106084217105E+001
1.308358777982787E+001  1.324815905469408E+001  1.341480038136617E+001  1.358353779789047E+001
1.375439766983161E+001  1.392740669439219E+001  1.410259190458431E+001  1.427998067345347E+001
1.445960071835570E+001  1.464148010528847E+001  1.482564725327599E+001  1.501213093880986E+001
1.520096030034534E+001  1.539216484285435E+001  1.558577444243565E+001  1.578181935098307E+001
1.598033020091246E+001  1.618133800994798E+001  1.638487418596874E+001  1.659097053191634E+001
1.679965925076413E+001  1.701097295054904E+001  1.722494464946657E+001  1.744160778102999E+001
1.766099619929443E+001  1.788314418414657E+001  1.810808644666104E+001  1.833585813452399E+001
1.856649483752505E+001  1.880003259311830E+001  1.903650789205317E+001  1.927595768407627E+001
1.951841938370475E+001  1.976393087607246E+001  2.001253052284959E+001  2.026425716823670E+001
2.051915014503432E+001  2.077724928078865E+001  2.103859490401473E+001  2.130322785049792E+001
2.157118946967448E+001  2.184252163109263E+001  2.211726673095459E+001  2.239546769874119E+001
2.267716800391965E+001  2.296241166273576E+001  2.325124324509159E+001  2.354370788150948E+001
2.383985127018391E+001  2.413971968412185E+001  2.444335997837306E+001  2.475081959735130E+001
2.506214658224758E+001  2.537738957853666E+001  2.569659784357809E+001  2.601982125431268E+001
2.634711031505603E+001  2.667851616538971E+001  2.701409058815210E+001  2.735388601752949E+001
2.769795554724900E+001  2.804635293887472E+001  2.839913263020789E+001  2.875634974379301E+001
2.911806009553085E+001  2.948432020339975E+001  2.985518729628676E+001  3.023071932292967E+001
3.061097496097167E+001  3.099601362612983E+001  3.138589548147892E+001  3.178068144685213E+001
3.218043320835970E+001  3.258521322802768E+001  3.299508475355767E+001  3.341011182820939E+001
3.383035930080771E+001  3.425589283587517E+001  3.468677892389240E+001  3.512308489168729E+001
3.556487891295494E+001  3.601223001891007E+001  3.646520810907312E+001  3.692388396219226E+001
3.738832924730270E+001  3.785861653492519E+001  3.833481930840518E+001  3.881701197539493E+001
3.930526987947967E+001  3.979966931195027E+001  4.030028752372392E+001  4.080720273741468E+001
4.132049415955610E+001  4.184024199297715E+001  4.236652744933424E+001  4.289943276180065E+001
4.343904119791563E+001  4.398543707259524E+001  4.453870576130652E+001  4.509893371340768E+001
4.566620846565608E+001  4.624061865588580E+001  4.682225403685783E+001  4.741120549028372E+001
4.800756504102633E+001  4.861142587147874E+001  4.922288233612424E+001  4.984202997627953E+001
5.046896553502302E+001  5.110378697231125E+001  5.174659348028538E+001  5.239748549877003E+001
5.305656473096741E+001  5.372393415934842E+001  5.439969806174403E+001  5.508396202763883E+001