<UPF version="2.0.1">
<PP_INFO>
Generated in analytical, separable form
Author: Goedecker/Hartwigsen/Hutter/Teter
Generation date: Phys.Rev.B58, 3641 (1998); B54, 1703 (1996)
Pseudopotential type: NC
Element: Po
Functional: SLA-PW-PBX-PBC

Suggested minimum cutoff for wavefunctions:   0. Ry
Suggested minimum cutoff for charge density:   0. Ry
The Pseudo was generated with a Non-Relativistic Calculation
Local Potential: unknown format, L component and cutoff radius: -3   0.0000

Valence configuration:
nl pn  l   occ       Rcut    Rcut US       E pseu

Generation configuration: not available.
Converted from CPMD format using cpmd2upf v.5.0.1 - PG 10Jul2012
Contains atomic orbitals generated by ld1.x - use with care
</PP_INFO>
<!--                               -->
<!-- END OF HUMAN READABLE SECTION -->
<!--                               -->
<PP_HEADER generated="Generated in analytical, separable form"
author="Goedecker/Hartwigsen/Hutter/Teter"
date="Phys.Rev.B58, 3641 (1998); B54, 1703 (1996)"
comment="Contains atomic orbitals generated by ld1.x - use with care"
element="Po"
pseudo_type="NC"
relativistic="no"
is_ultrasoft="F"
is_paw="F"
is_coulomb="F"
has_so="F"
has_wfc="F"
has_gipaw="F"
paw_as_gipaw="F"
core_correction="F"
functional="SLA-PW-PBX-PBC"
z_valence="6.000000000000000E+000"
total_psenergy="0.000000000000000E+000"
wfc_cutoff="0.000000000000000E+000"
rho_cutoff="0.000000000000000E+000"
l_max="2"
l_max_rho="0"
l_local="-3"
mesh_size="1283"
number_of_wfc=" 3"
number_of_proj="6"/>
<PP_MESH dx="1.250000000000000E-002" mesh="1283" xmin="-7.000000000000000E+000" rmax="9.890731516454190E+001"
zmesh="8.400000000000000E+001">
<PP_R type="real" size="1283" columns="4">
1.085573768517281E-005  1.099228605558360E-005  1.113055199305455E-005  1.127055710191969E-005
1.141232325826214E-005  1.155587261333225E-005  1.170122759700879E-005  1.184841092130371E-005
1.199744558391084E-005  1.214835487179946E-005  1.230116236485282E-005  1.245589193955260E-005
1.261256777270964E-005  1.277121434524163E-005  1.293185644599831E-005  1.309451917563474E-005
1.325922795053337E-005  1.342600850677538E-005  1.359488690416199E-005  1.376588953028640E-005
1.393904310465684E-005  1.411437468287158E-005  1.429191166084644E-005  1.447168177909541E-005
1.465371312706525E-005  1.483803414752440E-005  1.502467364100732E-005  1.521366077031458E-005
1.540502506506962E-005  1.559879642633286E-005  1.579500513127371E-005  1.599368183790151E-005
1.619485758985588E-005  1.639856382125735E-005  1.660483236161903E-005  1.681369544082002E-005
1.702518569414136E-005  1.723933616736542E-005  1.745618032193932E-005  1.767575204020342E-005
1.789808563068538E-005  1.812321583346109E-005  1.835117782558274E-005  1.858200722657538E-005
1.881574010400258E-005  1.905241297910196E-005  1.929206283249175E-005  1.953472710994912E-005
1.978044372826112E-005  2.002925108114930E-005  2.028118804526874E-005  2.053629398628265E-005
2.079460876501333E-005  2.105617274367049E-005  2.132102679215797E-005  2.158921229445970E-005
2.186077115510604E-005  2.213574580572144E-005  2.241417921165449E-005  2.269611487869139E-005
2.298159685985368E-005  2.327066976228175E-005  2.356337875420472E-005  2.385976957199808E-005
2.415988852733017E-005  2.446378251439832E-005  2.477149901725630E-005  2.508308611723374E-005
2.539859250044890E-005  2.571806746541612E-005  2.604156093074863E-005  2.636912344295853E-005
2.670080618435480E-005  2.703666098104056E-005  2.737674031101114E-005  2.772109731235374E-005
2.806978579155039E-005  2.842286023188540E-005  2.878037580195837E-005  2.914238836430456E-005
2.950895448412332E-005  2.988013143811665E-005  3.025597722343879E-005  3.063655056675833E-005
3.102191093343451E-005  3.141211853680859E-005  3.180723434761251E-005  3.220732010349555E-005
3.261243831867105E-005  3.302265229368439E-005  3.343802612530372E-005  3.385862471653532E-005
3.428451378676480E-005  3.471575988202581E-005  3.515243038539818E-005  3.559459352753643E-005
3.604231839733114E-005  3.649567495270409E-005  3.695473403153939E-005  3.741956736275215E-005
3.789024757749603E-005  3.836684822051222E-005  3.884944376162081E-005  3.933810960735693E-005
3.983292211275324E-005  4.033395859327038E-005  4.084129733687779E-005  4.135501761628635E-005
4.187519970133486E-005  4.240192487153250E-005  4.293527542875869E-005  4.347533471012314E-005
4.402218710098728E-005  4.457591804814977E-005  4.513661407319771E-005  4.570436278602576E-005
4.627925289852536E-005  4.686137423844623E-005  4.745081776343203E-005  4.804767557523284E-005
4.865204093409603E-005  4.926400827333853E-005  4.988367321410214E-005  5.051113258029453E-005
5.114648441371833E-005  5.178982798939011E-005  5.244126383105245E-005  5.310089372688097E-005
5.376882074538888E-005  5.444514925153182E-005  5.512998492301483E-005  5.582343476680489E-005
5.652560713585092E-005  5.723661174601417E-005  5.795655969321147E-005  5.868556347077443E-005
5.942373698702640E-005  6.017119558308112E-005  6.092805605086495E-005  6.169443665136576E-005
6.247045713311172E-005  6.325623875088185E-005  6.405190428465263E-005  6.485757805878249E-005
6.567338596143776E-005  6.649945546426309E-005  6.733591564229890E-005  6.818289719414982E-005
6.904053246240651E-005  6.990895545432443E-005  7.078830186276303E-005  7.167870908738760E-005
7.258031625613855E-005  7.349326424697033E-005  7.441769570986383E-005  7.535375508911604E-005
7.630158864590932E-005  7.726134448116532E-005  7.823317255868594E-005  7.921722472858540E-005
8.021365475101747E-005  8.122261832020033E-005  8.224427308874443E-005  8.327877869228592E-005
8.432629677442999E-005  8.538699101200832E-005  8.646102714065346E-005  8.754857298069567E-005
8.864979846338505E-005  8.976487565744368E-005  9.089397879595192E-005  9.203728430357226E-005
9.319497082411634E-005  9.436721924845836E-005  9.555421274279945E-005  9.675613677728823E-005
9.797317915500036E-005  9.920553004128344E-005  1.004533819934707E-004  1.017169299909683E-004
1.029963714657218E-004  1.042919063330646E-004  1.056037370229555E-004  1.069320685116086E-004
1.082771083535216E-004  1.096390667139064E-004  1.110181564015277E-004  1.124145929019549E-004
1.138285944112323E-004  1.152603818699724E-004  1.167101789978789E-004  1.181782123287025E-004
1.196647112456379E-004  1.211699080171652E-004  1.226940378333422E-004  1.242373388425536E-004
1.258000521887221E-004  1.273824220489872E-004  1.289846956718591E-004  1.306071234158509E-004
1.322499587885989E-004  1.339134584864722E-004  1.355978824346831E-004  1.373034938279004E-004
1.390305591713743E-004  1.407793483225788E-004  1.425501345333765E-004  1.443431944927155E-004
1.461588083698625E-004  1.479972598581795E-004  1.498588362194524E-004  1.517438283287746E-004
1.536525307199985E-004  1.555852416317559E-004  1.575422630540587E-004  1.595239007754861E-004
1.615304644309635E-004  1.635622675501446E-004  1.656196276064004E-004  1.677028660664253E-004
1.698123084404673E-004  1.719482843331890E-004  1.741111274951693E-004  1.763011758750526E-004
1.785187716723536E-004  1.807642613909279E-004  1.830379958931123E-004  1.853403304545487E-004
1.876716248196964E-004  1.900322432580430E-004  1.924225546210223E-004  1.948429323996479E-004
1.972937547828721E-004  1.997754047166782E-004  2.022882699639174E-004  2.048327431648974E-004
2.074092218987323E-004  2.100181087454662E-004  2.126598113489768E-004  2.153347424806702E-004
2.180433201039783E-004  2.207859674396653E-004  2.235631130319572E-004  2.263751908155030E-004
2.292226401831777E-004  2.321059060547380E-004  2.350254389463426E-004  2.379816950409456E-004
2.409751362595761E-004  2.440062303335150E-004  2.470754508773779E-004  2.501832774631194E-004
2.533301956949664E-004  2.565166972852949E-004  2.597432801314616E-004  2.630104483936005E-004
2.663187125734000E-004  2.696685895938687E-004  2.730606028801063E-004  2.764952824410902E-004
2.799731649524894E-004  2.834947938405224E-004  2.870607193668676E-004  2.906714987146433E-004
2.943276960754690E-004  2.980298827376208E-004  3.017786371752970E-004  3.055745451390051E-004
3.094181997470875E-004  3.133102015783966E-004  3.172511587661367E-004  3.212416870928867E-004
3.252824100868163E-004  3.293739591191140E-004  3.335169735026408E-004  3.377121005918226E-004
3.419599958838028E-004  3.462613231208628E-004  3.506167543941344E-004  3.550269702486156E-004
3.594926597895060E-004  3.640145207898821E-004  3.685932597997249E-004  3.732295922563201E-004
3.779242425960471E-004  3.826779443675723E-004  3.874914403464694E-004  3.923654826512781E-004
3.973008328610248E-004  4.022982621342209E-004  4.073585513293575E-004  4.124824911269170E-004
4.176708821529172E-004  4.229245351040115E-004  4.282442708741627E-004  4.336309206829076E-004
4.390853262052383E-004  4.446083397031145E-004  4.502008241586320E-004  4.558636534088650E-004
4.615977122824049E-004  4.674038967376169E-004  4.732831140026347E-004  4.792362827171173E-004
4.852643330757884E-004  4.913682069737803E-004  4.975488581538085E-004  5.038072523551942E-004
5.101443674647642E-004  5.165611936696473E-004  5.230587336119931E-004  5.296380025456371E-004
5.363000284947359E-004  5.430458524143977E-004  5.498765283533347E-004  5.567931236185593E-004
5.637967189421539E-004  5.708884086501366E-004  5.780693008334521E-004  5.853405175211141E-004
5.927031948555232E-004  6.001584832699925E-004  6.077075476685049E-004  6.153515676077309E-004
6.230917374813382E-004  6.309292667066170E-004  6.388653799134540E-004  6.469013171356844E-004
6.550383340048480E-004  6.632777019463860E-004  6.716207083783020E-004  6.800686569123249E-004
6.886228675576010E-004  6.972846769269467E-004  7.060554384456994E-004  7.149365225631902E-004
7.239293169668806E-004  7.330352267991933E-004  7.422556748770646E-004  7.515921019142667E-004
7.610459667465190E-004  7.706187465594352E-004  7.803119371193376E-004  7.901270530069714E-004
8.000656278541641E-004  8.101292145834551E-004  8.203193856507451E-004  8.306377332909960E-004
8.410858697670190E-004  8.516654276213959E-004  8.623780599315655E-004  8.732254405681207E-004
8.842092644563560E-004  8.953312478411000E-004  9.065931285548852E-004  9.179966662894850E-004
9.295436428708710E-004  9.412358625376273E-004  9.530751522228636E-004  9.650633618396819E-004
9.772023645702242E-004  9.894940571583638E-004  1.001940360206076E-003  1.014543218473534E-003
1.027304601182983E-003  1.040226502326434E-003  1.053310940977230E-003  1.066559961605532E-003
1.079975634397768E-003  1.093560055580106E-003  1.107315347745995E-003  1.121243660187818E-003
1.135347169232734E-003  1.149628078582724E-003  1.164088619658930E-003  1.178731051950314E-003
1.193557663366711E-003  1.208570770596322E-003  1.223772719467695E-003  1.239165885316270E-003
1.254752673355528E-003  1.270535519052812E-003  1.286516888509873E-003  1.302699278848202E-003
1.319085218599213E-003  1.335677268099331E-003  1.352478019890045E-003  1.369490099123005E-003
1.386716163970202E-003  1.404158906039316E-003  1.421821050794282E-003  1.439705357981151E-003
1.457814622059309E-003  1.476151672638110E-003  1.494719374919015E-003  1.513520630143281E-003
1.532558376045288E-003  1.551835587311568E-003  1.571355276045598E-003  1.591120492238458E-003
1.611134324245390E-003  1.631399899268363E-003  1.651920383844706E-003  1.672698984341883E-003
1.693738947458496E-003  1.715043560731587E-003  1.736616153050326E-003  1.758460095176153E-003
1.780578800269465E-003  1.802975724422936E-003  1.825654367201530E-003  1.848618272189322E-003
1.871871027543186E-003  1.895416266553456E-003  1.919257668211629E-003  1.943398957785219E-003
1.967843907399840E-003  1.992596336628602E-003  2.017660113088930E-003  2.043039153046890E-003
2.068737422029109E-003  2.094758935442400E-003  2.121107759201173E-003  2.147788010362748E-003
2.174803857770651E-003  2.202159522706004E-003  2.229859279547108E-003  2.257907456437325E-003
2.286308435961359E-003  2.315066655830043E-003  2.344186609573739E-003  2.373672847244467E-003
2.403529976126851E-003  2.433762661458025E-003  2.464375627156579E-003  2.495373656560689E-003
2.526761593175514E-003  2.558544341430008E-003  2.590726867443249E-003  2.623314199800404E-003
2.656311430338451E-003  2.689723714941797E-003  2.723556274347887E-003  2.757814394962963E-003
2.792503429688068E-003  2.827628798755455E-003  2.863195990575503E-003  2.899210562594295E-003
2.935678142161983E-003  2.972604427412067E-003  3.009995188151744E-003  3.047856266763454E-003
3.086193579117757E-003  3.125013115497707E-003  3.164320941534841E-003  3.204123199156951E-003
3.244426107547770E-003  3.285235964118729E-003  3.326559145492945E-003  3.368402108501583E-003
3.410771391192740E-003  3.453673613853041E-003  3.497115480042059E-003  3.541103777639770E-003
3.585645379907169E-003  3.630747246560230E-003  3.676416424857381E-003  3.722660050700642E-003
3.769485349750635E-003  3.816899638555604E-003  3.864910325694641E-003  3.913524912935289E-003
3.962750996405711E-003  4.012596267781600E-003  4.063068515488021E-003  4.114175625916364E-003
4.165925584656613E-003  4.218326477745105E-003  4.271386492927996E-003  4.325113920940611E-003
4.379517156802886E-003  4.434604701131108E-003  4.490385161466155E-003  4.546867253618441E-003
4.604059803029778E-003  4.661971746152370E-003  4.720612131845154E-003  4.779990122787700E-003
4.840114996911895E-003  4.900996148851650E-003  4.962643091410817E-003  5.025065457049590E-003
5.088272999389605E-003  5.152275594737945E-003  5.217083243630350E-003  5.282706072393810E-003
5.349154334728831E-003  5.416438413311592E-003  5.484568821416262E-003  5.553556204557721E-003
5.623411342154939E-003  5.694145149215289E-003  5.765768678040031E-003  5.838293119951266E-003
5.911729807040592E-003  5.986090213939775E-003  6.061385959613684E-003  6.137628809175765E-003
6.214830675726383E-003  6.293003622214256E-003  6.372159863321314E-003  6.452311767371278E-003
6.533471858262222E-003  6.615652817423471E-003  6.698867485797094E-003  6.783128865844324E-003
6.868450123577225E-003  6.954844590615905E-003  7.042325766271610E-003  7.130907319656020E-003
7.220603091817067E-003  7.311427097901643E-003  7.403393529345480E-003  7.496516756090598E-003
7.590811328830637E-003  7.686291981284432E-003  7.782973632498184E-003  7.880871389176598E-003
7.980000548043329E-003  8.080376598231126E-003  8.182015223702052E-003  8.284932305698121E-003
8.389143925222782E-003  8.494666365553604E-003  8.601516114786576E-003  8.709709868412406E-003
8.819264531925216E-003  8.930197223464073E-003  9.042525276487724E-003  9.156266242482987E-003
9.271437893707204E-003  9.388058225965201E-003  9.506145461421159E-003  9.625718051445867E-003
9.746794679499788E-003  9.869394264052389E-003  9.993535961538187E-003  1.011923916934998E-002
1.024652352886974E-002  1.037540892853760E-002  1.050591550695947E-002  1.063806365605376E-002
1.077187402423762E-002  1.090736751965331E-002  1.104456531343516E-002  1.118348884301757E-002
1.132415981548469E-002  1.146660021096217E-002  1.161083228605158E-002  1.175687857730812E-002
1.190476190476191E-002  1.205450537548375E-002  1.220613238719559E-002  1.235966663192649E-002
1.251513209971458E-002  1.267255308235547E-002  1.283195417719800E-002  1.299336029098753E-002
1.315679664375772E-002  1.332228877277120E-002  1.348986253650984E-002  1.365954411871515E-002
1.383136003247957E-002  1.400533712438918E-002  1.418150257871855E-002  1.435988392167835E-002
1.454050902571631E-002  1.472340611387244E-002  1.490860376418887E-002  1.509613091417524E-002
1.528601686533026E-002  1.547829128772014E-002  1.567298422461455E-002  1.587012609718099E-002
1.606974770923814E-002  1.627188025206901E-002  1.647655530929467E-002  1.668380486180921E-002
1.689366129277688E-002  1.710615739269196E-002  1.732132636450241E-002  1.753920182879781E-002
1.775981782906275E-002  1.798320883699611E-002  1.820940975789737E-002  1.843845593612064E-002
1.867038316059725E-002  1.890522767042790E-002  1.914302616054504E-002  1.938381578744655E-002
1.962763417500154E-002  1.987451942032909E-002  2.012451009975110E-002  2.037764527481982E-002
2.063396449842138E-002  2.089350782095594E-002  2.115631579659570E-002  2.142242948962154E-002
2.169189048083940E-002  2.196474087407739E-002  2.224102330276456E-002  2.252078093659251E-002
2.280405748826068E-002  2.309089722030661E-002  2.338134495202200E-002  2.367544606645587E-002
2.397324651750568E-002  2.427479283709781E-002  2.458013214245818E-002  2.488931214347448E-002
2.520238115015090E-002  2.551938808015667E-002  2.584038246646956E-002  2.616541446511551E-002
2.649453486300558E-002  2.682779508587154E-002  2.716524720630124E-002  2.750694395187506E-002
2.785293871340467E-002  2.820328555327549E-002  2.855803921389403E-002  2.891725512624154E-002
2.928098941853513E-002  2.964929892499800E-002  3.002224119473987E-002  3.039987450074914E-002
3.078225784899818E-002  3.116945098766312E-002  3.156151441645962E-002  3.195850939609609E-002
3.236049795784579E-002  3.276754291323935E-002  3.317970786387919E-002  3.359705721137740E-002
3.401965616741863E-002  3.444757076394955E-002  3.488086786349646E-002  3.531961516961272E-002
3.576388123745756E-002  3.621373548450792E-002  3.666924820140515E-002  3.713049056293802E-002
3.759753463916392E-002  3.807045340666997E-002  3.854932075997574E-002  3.903421152307947E-002
3.952520146114939E-002  4.002236729236227E-002  4.052578669989072E-002  4.103553834404138E-002
4.155170187454574E-002  4.207435794300561E-002  4.260358821549500E-002  4.313947538532076E-002
4.368210318594341E-002  4.423155640406078E-002  4.478792089285609E-002  4.535128358541265E-002
4.592173250829733E-002  4.649935679531493E-002  4.708424670143546E-002  4.767649361689674E-002
4.827619008148424E-002  4.888342979899065E-002  4.949830765185726E-002  5.012091971599956E-002
5.075136327581928E-002  5.138973683940531E-002  5.203614015392571E-002  5.269067422121353E-002
5.335344131354842E-002  5.402454498963696E-002  5.470409011079394E-002  5.539218285732706E-002
5.608893074512790E-002  5.679444264247149E-002  5.750882878702716E-002  5.823220080308342E-002
5.896467171898950E-002  5.970635598481621E-002  6.045736949023909E-002  6.121782958264629E-002
6.198785508547442E-002  6.276756631677494E-002  6.355708510801403E-002  6.435653482310916E-002
6.516604037770478E-002  6.598572825869078E-002  6.681572654396620E-002  6.765616492245174E-002
6.850717471435397E-002  6.936888889168424E-002  7.024144209903595E-002  7.112497067462294E-002
7.201961267158273E-002  7.292550787954749E-002  7.384279784648652E-002  7.477162590082342E-002
7.571213717383138E-002  7.666447862231027E-002  7.762879905154899E-002  7.860524913857654E-002
7.959398145570563E-002  8.059515049437238E-002  8.160891268927598E-002  8.263542644282189E-002
8.367485214987258E-002  8.472735222280951E-002  8.579309111691037E-002  8.687223535604566E-002
8.796495355869825E-002  8.907141646431052E-002  9.019179695996249E-002  9.132627010738611E-002
9.247501317031878E-002  9.363820564220113E-002  9.481602927422353E-002  9.600866810372470E-002
9.721630848294828E-002  9.843913910816041E-002  9.967735104913415E-002  1.009311377790045E-001
1.022006952044988E-001  1.034862216965477E-001  1.047879181212811E-001  1.061059878714136E-001
1.074406368980253E-001  1.087920737427420E-001  1.101605095703202E-001  1.115461582016421E-001
1.129492361471253E-001  1.143699626405537E-001  1.158085596733320E-001  1.172652520291737E-001
1.187402673192229E-001  1.202338360176197E-001  1.217461914975120E-001  1.232775700675202E-001
1.248282110086617E-001  1.263983566117382E-001  1.279882522151948E-001  1.295981462434541E-001
1.312282902457334E-001  1.328789389353497E-001  1.345503502295189E-001  1.362427852896563E-001
1.379565085621833E-001  1.396917878198478E-001  1.414488942035644E-001  1.432281022647802E-001
1.450296900083747E-001  1.468539389360984E-001  1.487011340905573E-001  1.505715640997528E-001
1.524655212221791E-001  1.543833013924898E-001  1.563252042677384E-001  1.582915332741999E-001
1.602825956547821E-001  1.622987025170329E-001  1.643401688817512E-001  1.664073137322100E-001
1.685004600639977E-001  1.706199349354873E-001  1.727660695189396E-001  1.749391991522494E-001
1.771396633913434E-001  1.793678060632356E-001  1.816239753197520E-001  1.839085236919289E-001
1.862218081450974E-001  1.885641901346598E-001  1.909360356625676E-001  1.933377153345101E-001
1.957696044178222E-001  1.982320829001208E-001  2.007255355486791E-001  2.032503519705460E-001
2.058069266734244E-001  2.083956591273130E-001  2.110169538269244E-001  2.136712203548887E-001
2.163588734457508E-001  2.190803330507745E-001  2.218360244035597E-001  2.246263780864868E-001
2.274518300979959E-001  2.303128219207121E-001  2.332098005904286E-001  2.361432187659563E-001
2.391135347998533E-001  2.421212128100431E-001  2.451667227523338E-001  2.482505404938502E-001
2.513731478873884E-001  2.545350328467066E-001  2.577366894227627E-001  2.609786178809104E-001
2.642613247790672E-001  2.675853230468646E-001  2.709511320657945E-001  2.743592777503642E-001
2.778102926302705E-001  2.813047159336098E-001  2.848430936711328E-001  2.884259787215594E-001
2.920539309179686E-001  2.957275171352720E-001  2.994473113787902E-001  3.032138948739416E-001
3.070278561570604E-001  3.108897911673569E-001  3.148003033400333E-001  3.187600037005731E-001
3.227695109602132E-001  3.268294516126204E-001  3.309404600317819E-001  3.351031785711268E-001
3.393182576638963E-001  3.435863559247742E-001  3.479081402527970E-001  3.522842859355592E-001
3.567154767547265E-001  3.612024050928802E-001  3.657457720417016E-001  3.703462875115199E-001
3.750046703422375E-001  3.797216484156490E-001  3.844979587691749E-001  3.893343477110259E-001
3.942315709368134E-001  3.991903936476304E-001  4.042115906696139E-001  4.092959465750143E-001
4.144442558047863E-001  4.196573227927209E-001  4.249359620911416E-001  4.302809984981780E-001
4.356932671866430E-001  4.411736138345309E-001  4.467228947571550E-001  4.523419770409497E-001
4.580317386789542E-001  4.637930687079998E-001  4.696268673476257E-001  4.755340461407376E-001
4.815155280960406E-001  4.875722478322598E-001  4.937051517241758E-001  4.999151980505001E-001
5.062033571436049E-001  5.125706115411421E-001  5.190179561395658E-001  5.255463983495863E-001
5.321569582535817E-001  5.388506687649856E-001  5.456285757896845E-001  5.524917383894404E-001
5.594412289473727E-001  5.664781333355202E-001  5.736035510845100E-001  5.808185955553624E-001
5.881243941134550E-001  5.955220883046758E-001  6.030128340337937E-001  6.105978017450682E-001
6.182781766051365E-001  6.260551586881962E-001  6.339299631635196E-001  6.419038204853281E-001
6.499779765850511E-001  6.581536930660052E-001  6.664322474005256E-001  6.748149331295693E-001
6.833030600648362E-001  6.918979544934289E-001  7.006009593850882E-001  7.094134346020355E-001
7.183367571114524E-001  7.273723212006354E-001  7.365215386948565E-001  7.457858391779626E-001
7.551666702157541E-001  7.646654975821654E-001  7.742838054882978E-001  7.840230968143305E-001
7.938848933443478E-001  8.038707360041208E-001  8.139821851018828E-001  8.242208205721268E-001
8.345882422224752E-001  8.450860699836540E-001  8.557159441626080E-001  8.664795256988056E-001
8.773784964237601E-001  8.884145593238212E-001  8.995894388062700E-001  9.109048809687605E-001
9.223626538721535E-001  9.339645478167756E-001  9.457123756221596E-001  9.576079729103013E-001
9.696531983924779E-001  9.818499341596789E-001  9.942000859766819E-001  1.006705583579834E+000
1.019368380978579E+000  1.032190456760773E+000  1.045173814401843E+000  1.058320482577837E+000
1.071632515482404E+000  1.085111993147767E+000  1.098761021769737E+000  1.112581734036806E+000
1.126576289463383E+000  1.140746874727226E+000  1.155095704011113E+000  1.169625019348810E+000
1.184337090975403E+000  1.199234217682013E+000  1.214318727174997E+000  1.229592976439653E+000
1.245059352108503E+000  1.260720270834213E+000  1.276578179667197E+000  1.292635556437973E+000
1.308894910144329E+000  1.325358781343361E+000  1.342029742548443E+000  1.358910398631179E+000
1.376003387228426E+000  1.393311379154428E+000  1.410837078818135E+000  1.428583224645779E+000
1.446552589508750E+000  1.464747981156865E+000  1.483172242657089E+000  1.501828252837764E+000
1.520718926738440E+000  1.539847216065345E+000  1.559216109652604E+000  1.578828633929246E+000
1.598687853392090E+000  1.618796871084583E+000  1.639158829081651E+000  1.659776908980658E+000
1.680654332398536E+000  1.701794361475167E+000  1.723200299383107E+000  1.744875490843705E+000
1.766823322649723E+000  1.789047224194536E+000  1.811550668007972E+000  1.834337170298914E+000
1.857410291504704E+000  1.880773636847471E+000  1.904430856897460E+000  1.928385648143433E+000
1.952641753570260E+000  1.977202963243763E+000  2.002073114902924E+000  2.027256094559537E+000
2.052755837105409E+000  2.078576326927194E+000  2.104721598528958E+000  2.131195737162582E+000
2.158002879466088E+000  2.185147214110000E+000  2.212632982451835E+000  2.240464479198816E+000
2.268646053078931E+000  2.297182107520436E+000  2.326077101339892E+000  2.355335549438876E+000
2.384962023509427E+000  2.414961152748393E+000  2.445337624580754E+000  2.476096185392032E+000
2.507241641269935E+000  2.538778858755310E+000  2.570712765602551E+000  2.603048351549574E+000
2.635790669097466E+000  2.668944834299965E+000  2.702516027562834E+000  2.736509494453322E+000
2.770930546519789E+000  2.805784562121650E+000  2.841076987269758E+000  2.876813336477343E+000
2.912999193621674E+000  2.949640212816552E+000  2.986742119295769E+000  3.024310710307703E+000
3.062351856021130E+000  3.100871500442465E+000  3.139875662344515E+000  3.179370436206930E+000
3.219361993168485E+000  3.259856581991316E+000  3.300860530037312E+000  3.342380244256780E+000
3.384422212189535E+000  3.426993002978608E+000  3.470099268396669E+000  3.513747743885387E+000
3.557945249607864E+000  3.602698691514284E+000  3.648015062421003E+000  3.693901443103171E+000
3.740365003401125E+000  3.787413003340691E+000  3.835052794267578E+000  3.883291819996048E+000
3.932137617972011E+000  3.981597820450778E+000  4.031680155689614E+000  4.082392449155290E+000
4.133742624746843E+000  4.185738706033677E+000  4.238388817509279E+000  4.291701185860687E+000
4.345684141253916E+000  4.400346118635582E+000  4.455695659050859E+000  4.511741410978046E+000
4.568492131679908E+000  4.625956688572010E+000  4.684144060608287E+000  4.743063339683999E+000
4.802723732056375E+000  4.863134559783101E+000  4.924305262178915E+000  4.986245397290523E+000
5.048964643390055E+000  5.112472800487313E+000  5.176779791861056E+000  5.241895665609511E+000
5.307830596220443E+000  5.374594886160899E+000  5.442198967487016E+000  5.510653403474042E+000
5.579968890266869E+000  5.650156258551339E+000  5.721226475246540E+000  5.793190645218424E+000
5.866060013014962E+000  5.939845964623119E+000  6.014560029247964E+000  6.090213881114098E+000
6.166819341289790E+000  6.244388379534053E+000  6.322933116166918E+000  6.402465823963297E+000
6.482998930070589E+000  6.564545017950467E+000  6.647116829345071E+000  6.730727266267919E+000
6.815389393019897E+000  6.901116438230552E+000  6.987921796925112E+000  7.075819032617479E+000
7.164821879429550E+000  7.254944244237234E+000  7.346200208843377E+000  7.438604032178112E+000
7.532170152526835E+000  7.626913189786201E+000  7.722847947748552E+000  7.819989416414997E+000
7.918352774337647E+000  8.017953390991304E+000  8.118806829174947E+000  8.220928847443497E+000
8.324335402570069E+000  8.429042652039286E+000  8.535066956571903E+000  8.642424882681206E+000
8.751133205261587E+000  8.861208910209607E+000  8.972669197078119E+000  9.085531481763709E+000
9.199813399227976E+000  9.315532806253046E+000  9.432707784231692E+000  9.551356641992616E+000
9.671497918661238E+000  9.793150386556457E+000  9.916333054123905E+000  1.004106516890599E+001
1.016736622054943E+001  1.029525594385050E+001  1.042475432183864E+001  1.055588158889891E+001
1.068865823393355E+001  1.082310500356349E+001  1.095924290537001E+001  1.109709321117724E+001
1.123667746037594E+001  1.137801746328902E+001  1.152113530457949E+001  1.166605334670124E+001
1.181279423339317E+001  1.196138089321739E+001  1.211183654314180E+001  1.226418469216780E+001
1.241844914500362E+001  1.257465400578387E+001  1.273282368183587E+001  1.289298288749329E+001
1.305515664795785E+001  1.321937030320958E+001  1.338564951196620E+001  1.355402025569238E+001
1.372450884265939E+001  1.389714191205579E+001  1.407194643814990E+001  1.424894973450457E+001
1.442817945824497E+001  1.460966361438008E+001  1.479343056017853E+001  1.497950900959948E+001
1.516792803777921E+001  1.535871708557425E+001  1.555190596416146E+001  1.574752485969617E+001
1.594560433802880E+001  1.614617534948081E+001  1.634926923368085E+001  1.655491772446149E+001
1.676315295481782E+001  1.697400746192824E+001  1.718751419223846E+001  1.740370650660950E+001
1.762261818553031E+001  1.784428343439611E+001  1.806873688885301E+001  1.829601362020991E+001
1.852614914091851E+001  1.875917941012212E+001  1.899514083927441E+001  1.923407029782875E+001
1.947600511899913E+001  1.972098310559361E+001  1.996904253592099E+001  2.022022216977195E+001
2.047456125447529E+001  2.073209953103046E+001  2.099287724031712E+001  2.125693512938294E+001
2.152431445781029E+001  2.179505700416324E+001  2.206920507251548E+001  2.234680149906042E+001
2.262788965880453E+001  2.291251347234463E+001  2.320071741273065E+001  2.349254651241464E+001
2.378804637028713E+001  2.408726315880216E+001  2.439024363119166E+001  2.469703512877087E+001
2.500768558833547E+001  2.532224354965175E+001  2.564075816304119E+001  2.596327919706013E+001
2.628985704627632E+001  2.662054273914312E+001  2.695538794597280E+001  2.729444498701022E+001
2.763776684060784E+001  2.798540715150378E+001  2.833742023920390E+001  2.869386110646930E+001
2.905478544791072E+001  2.942024965869080E+001  2.979031084333602E+001  3.016502682465936E+001