<UPF version="2.0.1">
<PP_INFO>
Generated in analytical, separable form
Author: Goedecker/Hartwigsen/Hutter/Teter
Generation date: Phys.Rev.B58, 3641 (1998); B54, 1703 (1996)
Pseudopotential type: NC
Element: Re
Functional: SLA-PW-PBX-PBC

Suggested minimum cutoff for wavefunctions:   0. Ry
Suggested minimum cutoff for charge density:   0. Ry
The Pseudo was generated with a Non-Relativistic Calculation
Local Potential: unknown format, L component and cutoff radius: -3   0.0000

Valence configuration:
nl pn  l   occ       Rcut    Rcut US       E pseu

Generation configuration: not available.
Converted from CPMD format using cpmd2upf v.5.0.1 - PG 10Jul2012
Atomic orbitals could not be generated by ld1.x - use with care
</PP_INFO>
<!--                               -->
<!-- END OF HUMAN READABLE SECTION -->
<!--                               -->
<PP_HEADER generated="Generated in analytical, separable form" author="Goedecker/Hartwigsen/Hutter/Teter" date="Phys.Rev.B58, 3641 (1998); B54, 1703 (1996)" comment="Atomic orbitals could not be generated by ld1.x - use with care" element="Re" pseudo_type="NC" relativistic="no" is_ultrasoft="F" is_paw="F" is_coulomb="F" has_so="F" has_wfc="F" has_gipaw="F" paw_as_gipaw="F" core_correction="F" functional="SLA-PW-PBX-PBC" z_valence="1.500000000000000E+001" total_psenergy="0.000000000000000E+000" wfc_cutoff="0.000000000000000E+000" rho_cutoff="0.000000000000000E+000" l_max="2" l_max_rho="0" l_local="-3" mesh_size="1275" number_of_wfc="0" number_of_proj="7"/>
<PP_MESH dx="1.250000000000000E-002" mesh="1275" xmin="-7.000000000000000E+000" rmax="1.002344444397554E+002" zmesh="7.500000000000000E+001">
<PP_R type="real" size="1275" columns="4">
1.215842620739355E-005  1.231136038225363E-005  1.246621823222110E-005  1.262302395415005E-005
1.278180204925360E-005  1.294257732693212E-005  1.310537490864985E-005  1.327022023186015E-005
1.343713905398014E-005  1.360615745641540E-005  1.377730184863516E-005  1.395059897229891E-005
1.412607590543480E-005  1.430376006667062E-005  1.448367921951810E-005  1.466586147671091E-005
1.485033530459738E-005  1.503712952758843E-005  1.522627333266143E-005  1.541779627392077E-005
1.561172827721566E-005  1.580809964481617E-005  1.600694106014801E-005  1.620828359258686E-005
1.641215870231308E-005  1.661859824522733E-005  1.682763447792819E-005  1.703930006275233E-005
1.725362807287797E-005  1.747065199749280E-005  1.769040574702655E-005  1.791292365844969E-005
1.813824050063858E-005  1.836639147980823E-005  1.859741224501332E-005  1.883133889371842E-005
1.906820797743833E-005  1.930805650744928E-005  1.955092196057204E-005  1.979684228502782E-005
2.004585590636763E-005  2.029800173347642E-005  2.055331916465267E-005  2.081184809376443E-005
2.107362891648289E-005  2.133870253659419E-005  2.160711037239076E-005  2.187889436314301E-005
2.215409697565245E-005  2.243276121088722E-005  2.271493061070099E-005  2.300064926463656E-005
2.328996181681493E-005  2.358291347291094E-005  2.387955000721693E-005  2.417991776979487E-005
2.448406369371876E-005  2.479203530240801E-005  2.510388071705303E-005  2.541964866413435E-005
2.573938848303612E-005  2.606315013375556E-005  2.639098420470929E-005  2.672294192063785E-005
2.705907515060979E-005  2.739943641612612E-005  2.774407889932706E-005  2.809305645130179E-005
2.844642360050277E-005  2.880423556126606E-005  2.916654824243847E-005  2.953341825611356E-005
2.990490292647738E-005  3.028106029876542E-005  3.066194914833248E-005  3.104762898983618E-005
3.143816008653644E-005  3.183360345971164E-005  3.223402089819338E-005  3.263947496802111E-005
3.305002902221811E-005  3.346574721069065E-005  3.388669449025145E-005  3.431293663476933E-005
3.474454024544664E-005  3.518157276122562E-005  3.562410246932601E-005  3.607219851591502E-005
3.652593091691158E-005  3.698537056892652E-005  3.745058926034017E-005  3.792165968251957E-005
3.839865544117657E-005  3.888165106786890E-005  3.937072203164596E-005  3.986594475084080E-005
4.036739660501087E-005  4.087515594702858E-005  4.138930211532412E-005  4.190991544628241E-005
4.243707728679556E-005  4.297087000697369E-005  4.351137701301531E-005  4.405868276023976E-005
4.461287276628363E-005  4.517403362446282E-005  4.574225301730312E-005  4.631761973024071E-005
4.690022366549505E-005  4.749015585611640E-005  4.808750848020974E-005  4.869237487533791E-005
4.930484955310576E-005  4.992502821392774E-005  5.055300776198144E-005  5.118888632034885E-005
5.183276324634840E-005  5.248473914705978E-005  5.314491589504387E-005  5.381339664426078E-005
5.449028584618756E-005  5.517568926613916E-005  5.586971399979439E-005  5.657246848992987E-005
5.728406254336453E-005  5.800460734811692E-005  5.873421549077875E-005  5.947300097410669E-005
6.022107923483555E-005  6.097856716171564E-005  6.174558311377661E-005  6.252224693882148E-005
6.330867999215304E-005  6.410500515553587E-005  6.491134685639684E-005  6.572783108726735E-005
6.655458542546956E-005  6.739173905305086E-005  6.823942277696874E-005  6.909776904952966E-005
6.996691198908512E-005  7.084698740098768E-005  7.173813279881094E-005  7.264048742583640E-005
7.355419227681029E-005  7.447939011997466E-005  7.541622551937478E-005  7.636484485744780E-005
7.732539635789529E-005  7.829803010884336E-005  7.928289808629459E-005  8.028015417787412E-005
8.128995420687518E-005  8.231245595660676E-005  8.334781919504749E-005  8.439620569980996E-005
8.545777928341844E-005  8.653270581890516E-005  8.762115326572825E-005  8.872329169601565E-005
8.983929332113956E-005  9.096933251862436E-005  9.211358585939376E-005  9.327223213536022E-005
9.444545238736157E-005  9.563342993344931E-005  9.683635039753189E-005  9.805440173837914E-005
9.928777427899125E-005  1.005366607363369E-004  1.018012562514662E-004  1.030817584200009E-004
1.043783673230103E-004  1.056912855582734E-004  1.070207182719354E-004  1.083668731905628E-004
1.097299606536004E-004  1.111101936462375E-004  1.125077878326872E-004  1.139229615898845E-004
1.153559360416085E-004  1.168069350930324E-004  1.182761854657101E-004  1.197639167330017E-004
1.212703613559442E-004  1.227957547195752E-004  1.243403351697110E-004  1.259043440501895E-004
1.274880257405802E-004  1.290916276943691E-004  1.307154004776244E-004  1.323595978081468E-004
1.340244765951145E-004  1.357102969792250E-004  1.374173223733432E-004  1.391458195036601E-004
1.408960584513687E-004  1.426683126948657E-004  1.444628591524822E-004  1.462799782257530E-004
1.481199538432307E-004  1.499830735048489E-004  1.518696283268450E-004  1.537799130872484E-004
1.557142262719392E-004  1.576728701212882E-004  1.596561506773816E-004  1.616643778318413E-004
1.636978653742460E-004  1.657569310411611E-004  1.678418965657867E-004  1.699530877282276E-004
1.720908344063983E-004  1.742554706275666E-004  1.764473346205457E-004  1.786667688685444E-004
1.809141201626791E-004  1.831897396561619E-004  1.854939829191684E-004  1.878272099943963E-004
1.901897854533234E-004  1.925820784531717E-004  1.950044627945896E-004  1.974573169800588E-004
1.999410242730360E-004  2.024559727578393E-004  2.050025554002858E-004  2.075811701090945E-004
2.101922197980600E-004  2.128361124490081E-004  2.155132611755450E-004  2.182240842876057E-004
2.209690053568167E-004  2.237484532826796E-004  2.265628623595876E-004  2.294126723446851E-004
2.322983285265802E-004  2.352202817949222E-004  2.381789887108540E-004  2.411749115783507E-004
2.442085185164557E-004  2.472802835324251E-004  2.503906865957921E-004  2.535402137133634E-004
2.567293570051591E-004  2.599586147813066E-004  2.632284916199038E-004  2.665394984458591E-004
2.698921526107252E-004  2.732869779735368E-004  2.767245049826632E-004  2.802052707586937E-004
2.837298191783623E-004  2.872987009595303E-004  2.909124737472370E-004  2.945717022008326E-004
2.982769580822080E-004  3.020288203451329E-004  3.058278752257190E-004  3.096747163340210E-004
3.135699447467881E-004  3.175141691013850E-004  3.215080056908917E-004  3.255520785604005E-004
3.296470196045253E-004  3.337934686661353E-004  3.379920736363326E-004  3.422434905556858E-004
3.465483837167380E-004  3.509074257678042E-004  3.553212978180731E-004  3.597906895440331E-004
3.643162992972342E-004  3.688988342134077E-004  3.735390103229576E-004  3.782375526628413E-004
3.829951953898591E-004  3.878126818953664E-004  3.926907649214305E-004  3.976302066784495E-004
4.026317789642467E-004  4.076962632846679E-004  4.128244509756919E-004  4.180171433270785E-004
4.232751517075727E-004  4.285992976916809E-004  4.339904131880458E-004  4.394493405694316E-004
4.449769328043477E-004  4.505740535903274E-004  4.562415774888804E-004  4.619803900621470E-004
4.677913880112672E-004  4.736754793164929E-004  4.796335833790622E-004  4.856666311648565E-004
4.917755653498668E-004  4.979613404674883E-004  5.042249230576678E-004  5.105672918179288E-004
5.169894377562935E-004  5.234923643461309E-004  5.300770876829509E-004  5.367446366431714E-004
5.434960530448830E-004  5.503323918106340E-004  5.572547211322655E-004  5.642641226378175E-004
5.713616915605358E-004  5.785485369100050E-004  5.858257816454323E-004  5.931945628511136E-004
6.006560319141043E-004  6.082113547041254E-004  6.158617117557350E-004  6.236082984527864E-004
6.314523252152124E-004  6.393950176881530E-004  6.474376169334663E-004  6.555813796236478E-004
6.638275782381859E-004  6.721775012623917E-004  6.806324533887256E-004  6.891937557206585E-004
6.978627459790987E-004  7.066407787114110E-004  7.155292255030685E-004  7.245294751919665E-004
7.336429340854297E-004  7.428710261799523E-004  7.522151933836982E-004  7.616768957418039E-004
7.712576116645131E-004  7.809588381581803E-004  7.907820910591833E-004  8.007289052707730E-004
8.108008350029063E-004  8.209994540150965E-004  8.313263558623125E-004  8.417831541439788E-004
8.523714827561014E-004  8.630929961465673E-004  8.739493695736581E-004  8.849422993678080E-004
8.960735031966638E-004  9.073447203334697E-004  9.187577119288344E-004  9.303142612859155E-004
9.420161741390613E-004  9.538652789359634E-004  9.658634271233533E-004  9.780124934362952E-004
9.903143761911188E-004  1.002770997582032E-003  1.015384303981471E-003  1.028156266244223E-003
1.041088880015376E-003  1.054184166042142E-003  1.067444170489607E-003  1.080870965260444E-003
1.094466648318651E-003  1.108233344017367E-003  1.122173203430805E-003  1.136288404690358E-003
1.150581153324941E-003  1.165053682605606E-003  1.179708253894497E-003  1.194547156998196E-003
1.209572710525500E-003  1.224787262249719E-003  1.240193189475514E-003  1.255792899410356E-003
1.271588829540662E-003  1.287583448012651E-003  1.303779254018001E-003  1.320178778184351E-003
1.336784582970717E-003  1.353599263067881E-003  1.370625445803819E-003  1.387865791554223E-003
1.405322994158192E-003  1.422999781339150E-003  1.440898915131057E-003  1.459023192309986E-003
1.477375444831119E-003  1.495958540271251E-003  1.514775382276850E-003  1.533828911017766E-003
1.553122103646626E-003  1.572657974764034E-003  1.592439576889596E-003  1.612470000938889E-003
1.632752376706426E-003  1.653289873354683E-003  1.674085699909297E-003  1.695143105760475E-003
1.716465381170723E-003  1.738055857788956E-003  1.759917909171070E-003  1.782054951307073E-003
1.804470443154836E-003  1.827167887180566E-003  1.850150829906071E-003  1.873422862462909E-003
1.896987621153515E-003  1.920848788019377E-003  1.945010091416366E-003  1.969475306597291E-003
1.994248256301801E-003  2.019332811353688E-003  2.044732891265713E-003  2.070452464852040E-003
2.096495550848369E-003  2.122866218539870E-003  2.149568588397024E-003  2.176606832719446E-003
2.203985176287821E-003  2.231707897024034E-003  2.259779326659602E-003  2.288203851412517E-003
2.316985912672602E-003  2.346130007695488E-003  2.375640690305313E-003  2.405522571606278E-003
2.435780320703129E-003  2.466418665430725E-003  2.497442393092761E-003  2.528856351209804E-003
2.560665448276722E-003  2.592874654529648E-003  2.625489002722588E-003  2.658513588913803E-003
2.691953573262073E-003  2.725814180832987E-003  2.760100702415369E-003  2.794818495347972E-003
2.829972984356575E-003  2.865569662401609E-003  2.901614091536439E-003  2.938111903776452E-003
2.975068801979065E-003  3.012490560734812E-003  3.050383027269633E-003  3.088752122358518E-003
3.127603841250636E-003  3.166944254606109E-003  3.206779509444563E-003  3.247115830105611E-003
3.287959519221421E-003  3.329316958701515E-003  3.371194610729954E-003  3.413599018775069E-003
3.456536808611888E-003  3.500014689357431E-003  3.544039454519022E-003  3.588617983055785E-003
3.633757240453503E-003  3.679464279812976E-003  3.725746242952098E-003  3.772610361521773E-003
3.820063958135869E-003  3.868114447515406E-003  3.916769337647106E-003  3.966036230956542E-003
4.015922825496029E-003  4.066436916147458E-003  4.117586395840266E-003  4.169379256784718E-003
4.221823591720711E-003  4.274927595182276E-003  4.328699564777997E-003  4.383147902487523E-003
4.438281115974396E-003  4.494107819915391E-003  4.550636737346583E-003  4.607876701026328E-003
4.665836654815406E-003  4.724525655074517E-003  4.783952872079356E-003  4.844127591453485E-003
4.905059215619232E-003  4.966757265266841E-003  5.029231380842094E-003  5.092491324052654E-003
5.156546979393351E-003  5.221408355690654E-003  5.287085587666574E-003  5.353588937522224E-003
5.420928796541323E-003  5.489115686713848E-003  5.558160262380114E-003  5.628073311895541E-003
5.698865759316357E-003  5.770548666106498E-003  5.843133232865992E-003  5.916630801081067E-003
5.991052854896290E-003  6.066411022908983E-003  6.142717079986213E-003  6.219982949104647E-003
6.298220703213531E-003  6.377442567121123E-003  6.457660919404835E-003  6.538888294345417E-003
6.621137383885463E-003  6.704421039612549E-003  6.788752274767326E-003  6.874144266276858E-003
6.960610356813549E-003  7.048164056879966E-003  7.136819046919872E-003  7.226589179455832E-003
7.317488481253688E-003  7.409531155514288E-003  7.502731584092746E-003  7.597104329745643E-003
7.692664138406491E-003  7.789425941489814E-003  7.887404858224202E-003  7.986616198014742E-003
8.087075462835115E-003  8.188798349649841E-003  8.291800752866937E-003  8.396098766821470E-003
8.501708688290314E-003  8.608647019038563E-003  8.716930468397967E-003  8.826575955877790E-003
8.937600613808527E-003  9.050021790018861E-003  9.163857050546299E-003  9.279124182381896E-003
9.395841196249515E-003  9.514026329420036E-003  9.633698048560966E-003  9.754875052621894E-003
9.877576275756243E-003  1.000182089027976E-002  1.012762830966625E-002  1.025501819158094E-002
1.038401044095207E-002  1.051462521308102E-002  1.064688291679170E-002  1.078080421761937E-002
1.091641004103976E-002  1.105372157573868E-002  1.119276027692277E-002  1.133354786967198E-002
1.147610635233411E-002  1.162045799996211E-002  1.176662536779461E-002  1.191463129478021E-002
1.206449890714613E-002  1.221625162201171E-002  1.236991315104738E-002  1.252550750417968E-002
1.268305899334286E-002  1.284259223627763E-002  1.300413216037777E-002  1.316770400658509E-002
1.333333333333334E-002  1.350104602054180E-002  1.367086827365906E-002  1.384282662775767E-002
1.401694795168033E-002  1.419325945223813E-002  1.437178867846176E-002  1.455256352590603E-002
1.473561224100864E-002  1.492096342550375E-002  1.510864604089102E-002  1.529868941296097E-002
1.549112323637711E-002  1.568597757931588E-002  1.588328288816478E-002  1.608306999227975E-002
1.628537010880227E-002  1.649021484753714E-002  1.669763621589153E-002  1.690766662387626E-002
1.712033888916989E-002  1.733568624224655E-002  1.755374233156830E-002  1.777454122884271E-002
1.799811743434672E-002  1.822450588231729E-002  1.845374194641003E-002  1.868586144522632E-002
1.892090064791010E-002  1.915889627981500E-002  1.939988552824269E-002  1.964390604825355E-002
1.989099596855028E-002  2.014119389743564E-002  2.039453892884506E-002  2.065107064845512E-002
2.091082913986892E-002  2.117385499087925E-002  2.144018929981045E-002  2.170987368194014E-002
2.198295027600172E-002  2.225946175076858E-002  2.253945131172123E-002  2.282296270779820E-002
2.311004023823195E-002  2.340072875947066E-002  2.369507369218719E-002  2.399312102837613E-002
2.429491733854013E-002  2.460050977896668E-002  2.490994609909631E-002  2.522327464898360E-002
2.554054438685196E-002  2.586180488674340E-002  2.618710634626464E-002  2.651649959443057E-002
2.685003609960637E-002  2.718776797754955E-002  2.752974799955316E-002  2.787602960069142E-002
2.822666688816901E-002  2.858171464977547E-002  2.894122836244591E-002  2.930526420092937E-002
2.967387904656625E-002  3.004713049617613E-002  3.042507687105739E-002  3.080777722610007E-002
3.119529135901323E-002  3.158767981966854E-002  3.198500391956132E-002  3.238732574139052E-002
3.279470814875934E-002  3.320721479599776E-002  3.362491013810866E-002  3.404785944083904E-002
3.447612879087796E-002  3.490978510618269E-002  3.534889614643477E-002  3.579353052362762E-002
3.624375771278729E-002  3.669964806282807E-002  3.716127280754469E-002  3.762870407674269E-002
3.810201490750887E-002  3.858127925562349E-002  3.906657200711604E-002  3.955796898996625E-002
4.005554698595246E-002  4.055938374264887E-002  4.106955798557377E-002  4.158614943049058E-002
4.210923879586358E-002  4.263890781547036E-002  4.317523925117283E-002  4.371831690584900E-002
4.426822563648732E-002  4.482505136744574E-002  4.538888110387761E-002  4.595980294532635E-002
4.653790609949124E-002  4.712328089616628E-002  4.771601880135441E-002  4.831621243155925E-002
4.892395556825661E-002  4.953934317254807E-002  5.016247139999883E-002  5.079343761566216E-002
5.143234040929302E-002  5.207927961075272E-002  5.273435630560772E-002  5.339767285092435E-002
5.406933289126235E-002  5.474944137486953E-002  5.543810457008013E-002  5.613543008191950E-002
5.684152686891759E-002  5.755650526013395E-002  5.828047697239680E-002  5.901355512775915E-002
5.975585427117423E-002  6.050749038839340E-002  6.126858092408921E-002  6.203924480020630E-002
6.281960243454325E-002  6.360977575956807E-002  6.440988824147041E-002  6.522006489945342E-002
6.604043232526824E-002  6.687111870299416E-002  6.771225382906777E-002  6.856396913256384E-002
6.942639769573135E-002  7.029967427478792E-002  7.118393532097572E-002  7.207931900188226E-002
7.298596522302936E-002  7.390401564973367E-002  7.483361372924213E-002  7.577490471314595E-002
7.672803568007644E-002  7.769315555868635E-002  7.867041515092027E-002  7.965996715557769E-002
8.066196619217265E-002  8.167656882509319E-002  8.270393358806491E-002  8.374422100892223E-002
8.479759363469114E-002  8.586421605698749E-002  8.694425493773487E-002  8.803787903520573E-002
8.914525923039031E-002  9.026656855369707E-002  9.140198221198909E-002  9.255167761596050E-002
9.371583440785729E-002  9.489463448954664E-002  9.608826205093962E-002  9.729690359877113E-002
9.852074798574204E-002  9.975998644002777E-002  1.010148125951580E-001  1.022854225202725E-001
1.035720147507570E-001  1.048747903192653E-001  1.061939527871304E-001  1.075297082761717E-001
1.088822655009021E-001  1.102518358011396E-001  1.116386331750302E-001  1.130428743124850E-001
1.144647786290386E-001  1.159045683001334E-001  1.173624682958348E-001  1.188387064159832E-001
1.203335133257884E-001  1.218471225918710E-001  1.233797707187586E-001  1.249316971858391E-001
1.265031444847804E-001  1.280943581574201E-001  1.297055868341318E-001  1.313370822726745E-001
1.329890993975297E-001  1.346618963397341E-001  1.363557344772134E-001  1.380708784756226E-001
1.398075963297011E-001  1.415661594051468E-001  1.433468424810181E-001  1.451499237926686E-001
1.469756850752214E-001  1.488244116075916E-001  1.506963922570612E-001  1.525919195244150E-001
1.545112895896453E-001  1.564548023582295E-001  1.584227615079921E-001  1.604154745365539E-001
1.624332528093797E-001  1.644764116084302E-001  1.665452701814242E-001  1.686401517917231E-001
1.707613837688406E-001  1.729092975595885E-001  1.750842287798670E-001  1.772865172671038E-001
1.795165071333560E-001  1.817745468190768E-001  1.840609891475614E-001  1.863761913800752E-001
1.887205152716774E-001  1.910943271277458E-001  1.934979978612123E-001  1.959319030505193E-001
1.983964229983046E-001  2.008919427908239E-001  2.034188523581222E-001  2.059775465349603E-001
2.085684251225090E-001  2.111918929508190E-001  2.138483599420757E-001  2.165382411746513E-001
2.192619569479608E-001  2.220199328481353E-001  2.248125998145206E-001  2.276403942070115E-001
2.305037578742353E-001  2.334031382225905E-001  2.363389882861553E-001  2.393117667974753E-001
2.423219382592409E-001  2.453699730168674E-001  2.484563473319869E-001  2.515815434568652E-001
2.547460497097555E-001  2.579503605511976E-001  2.611949766612801E-001  2.644804050178711E-001
2.678071589758357E-001  2.711757583472483E-001  2.745867294826138E-001  2.780406053531122E-001
2.815379256338750E-001  2.850792367883114E-001  2.886650921534942E-001  2.922960520266196E-001
2.959726837525553E-001  2.996955618124884E-001  3.034652679136898E-001  3.072823910804079E-001
3.111475277459030E-001  3.150612818456430E-001  3.190242649116687E-001  3.230370961681465E-001
3.271004026281248E-001  3.312148191915046E-001  3.353809887442450E-001  3.395995622588146E-001
3.438711988959076E-001  3.481965661074397E-001  3.525763397408374E-001  3.570112041446418E-001
3.615018522754388E-001  3.660489858061348E-001  3.706533152355957E-001  3.753155599996620E-001
3.800364485835639E-001  3.848167186357471E-001  3.896571170831327E-001  3.945584002478263E-001
3.995213339652937E-001  4.045466937040258E-001  4.096352646867058E-001  4.147878420129024E-001
4.200052307833060E-001  4.252882462255269E-001  4.306377138214759E-001  4.360544694363490E-001
4.415393594492310E-001  4.470932408853460E-001  4.527169815499675E-001  4.584114601640160E-001
4.641775665013607E-001  4.700162015278475E-001  4.759282775420786E-001  4.819147183179593E-001
4.879764592490402E-001  4.941144474946746E-001  5.003296421280136E-001  5.066230142858638E-001
5.129955473204287E-001  5.194482369529598E-001  5.259820914293407E-001  5.325981316776260E-001
5.392973914675655E-001  5.460809175721310E-001  5.529497699310769E-001  5.599050218165601E-001
5.669477600008374E-001  5.740790849260792E-001  5.813001108763137E-001  5.886119661515367E-001
5.960157932440114E-001  6.035127490167838E-001  6.111040048844466E-001  6.187907469961733E-001
6.265741764210574E-001  6.344555093357827E-001  6.424359772146512E-001  6.505168270220059E-001
6.586993214070695E-001  6.669847389012369E-001  6.753743741178488E-001  6.838695379544764E-001
6.924715577977529E-001  7.011817777307796E-001  7.100015587431420E-001  7.189322789435676E-001
7.279753337752571E-001  7.371321362339258E-001  7.464041170885888E-001  7.557927251051176E-001
7.652994272726165E-001  7.749257090326405E-001  7.846730745112988E-001  7.945430467542799E-001
8.045371679648267E-001  8.146569997447116E-001  8.249041233382393E-001  8.352801398793182E-001
8.457866706416446E-001  8.564253572920253E-001  8.671978621468935E-001  8.781058684320501E-001
8.891510805456695E-001  9.003352243246153E-001  9.116600473141087E-001  9.231273190407819E-001
9.347388312891721E-001  9.464963983816924E-001  9.584018574621209E-001  9.704570687826624E-001
9.826639159946112E-001  9.950243064426797E-001  1.007540171463022E+000  1.020213466685012E+000
1.033046172336812E+000  1.046040293554789E+000  1.059197860696819E+000  1.072520929659537E+000
1.086011582199575E+000  1.099671926258840E+000  1.113504096293884E+000  1.127510253609414E+000
1.141692586696009E+000  1.156053311572065E+000  1.170594672130065E+000  1.185318940487178E+000
1.200228417340292E+000  1.215325432325499E+000  1.230612344382105E+000  1.246091542121222E+000
1.261765444198989E+000  1.277636499694493E+000  1.293707188492446E+000  1.309980021670668E+000
1.326457541892452E+000  1.343142323803855E+000  1.360036974435997E+000  1.377144133612411E+000
1.394466474361523E+000  1.412006703334319E+000  1.429767561227261E+000  1.447751823210529E+000
1.465962299361648E+000  1.484401835104565E+000  1.503073311654256E+000  1.521979646466921E+000
1.541123793695837E+000  1.560508744652959E+000  1.580137528276311E+000  1.600013211603273E+000
1.620138900249800E+000  1.640517738895689E+000  1.661152911775939E+000  1.682047643178296E+000
1.703205197947052E+000  1.724628881993186E+000  1.746322042810916E+000  1.768288070000755E+000
1.790530395799140E+000  1.813052495614733E+000  1.835857888571450E+000  1.858950138058337E+000
1.882332852286360E+000  1.906009684852187E+000  1.929984335309080E+000  1.954260549744949E+000
1.978842121367690E+000  2.003732891097880E+000  2.028936748168928E+000  2.054457630734784E+000
2.080299526485268E+000  2.106466473269168E+000  2.132962559725156E+000  2.159791925920645E+000
2.186958763998691E+000  2.214467318833015E+000  2.242321888691274E+000  2.270526825906682E+000
2.299086537558058E+000  2.328005486158458E+000  2.357288190352433E+000  2.386939225622091E+000
2.416963225002018E+000  2.447364879803200E+000  2.478148940346055E+000  2.509320216702673E+000
2.540883579448402E+000  2.572843960422888E+000  2.605206353500679E+000  2.637975815371541E+000
2.671157466330558E+000  2.704756491078201E+000  2.738778139530445E+000  2.773227727639075E+000
2.808110638222327E+000  2.843432321805948E+000  2.879198297474857E+000  2.915414153735522E+000
2.952085549389162E+000  2.989218214415961E+000  3.026817950870375E+000  3.064890633787721E+000
3.103442212102164E+000  3.142478709576248E+000  3.182006225742129E+000  3.222030936854624E+000
3.262559096856275E+000  3.303597038354538E+000  3.345151173611261E+000  3.387227995544627E+000
3.429834078743666E+000  3.472976080495560E+000  3.516660741825857E+000  3.560894888551762E+000
3.605685432348703E+000  3.651039371830274E+000  3.696963793641789E+000  3.743465873567594E+000
3.790552877652279E+000  3.838232163336041E+000  3.886511180604269E+000  3.935397473151633E+000
3.984898679560807E+000  4.035022534495998E+000  4.085776869911524E+000  4.137169616275552E+000
4.189208803809260E+000  4.241902563741574E+000  4.295259129579687E+000  4.349286838395574E+000
4.403994132128652E+000  4.459389558904871E+000  4.515481774372367E+000  4.572279543053925E+000
4.629791739716463E+000  4.688027350757717E+000  4.746995475610393E+000  4.806705328163970E+000
4.867166238204385E+000  4.928387652871852E+000  4.990379138136962E+000  5.053150380295412E+000
5.116711187481497E+000  5.181071491200651E+000  5.246241347881281E+000  5.312230940446080E+000
5.379050579903140E+000  5.446710706957074E+000  5.515221893640384E+000  5.584594844965386E+000
5.654840400596861E+000  5.725969536545791E+000  5.797993366884381E+000  5.870923145482652E+000
5.944770267766896E+000  6.019546272500207E+000  6.095262843585458E+000  6.171931811890928E+000
6.249565157098893E+000  6.328175009577500E+000  6.407773652276125E+000  6.488373522644635E+000
6.569987214576757E+000  6.652627480377894E+000  6.736307232757721E+000  6.821039546847789E+000
6.906837662244566E+000  6.993714985078139E+000  7.081685090106948E+000  7.170761722838892E+000
7.260958801679059E+000  7.352290420104523E+000  7.444770848866480E+000  7.538414538220069E+000
7.633236120182286E+000  7.729250410818219E+000  7.826472412556125E+000  7.924917316531577E+000
8.024600504961096E+000  8.125537553545701E+000  8.227744233904582E+000  8.331236516039485E+000
8.436030570830054E+000  8.542142772560545E+000  8.649589701478378E+000  8.758388146384798E+000
8.868555107258166E+000  8.980107797910259E+000  9.093063648675940E+000  9.207440309136716E+000
9.323255650878478E+000  9.440527770284001E+000  9.559274991360532E+000  9.679515868602952E+000
9.801269189892976E+000  9.924553979434760E+000  1.004938950072749E+001  1.017579525957536E+001
1.030379100713533E+001  1.043339674300341E+001  1.056463271833949E+001  1.069751943903173E+001
1.083207766890059E+001  1.096832843294323E+001  1.110629302061877E+001  1.124599298917471E+001
1.138745016701536E+001  1.153068665711256E+001  1.167572484045928E+001  1.182258737956678E+001
1.197129722200558E+001  1.212187760399111E+001  1.227435205401441E+001  1.242874439651851E+001
1.258507875562105E+001  1.274337955888370E+001  1.290367154112903E+001  1.306597974830539E+001
1.323032954140035E+001  1.339674660040348E+001  1.356525692831882E+001  1.373588685522793E+001
1.390866304240405E+001  1.408361248647794E+001  1.426076252365618E+001  1.444014083399248E+001
1.462177544571280E+001  1.480569473959473E+001  1.499192745340214E+001  1.518050268637547E+001
1.537144990377852E+001  1.556479894150248E+001  1.576058001072789E+001  1.595882370264511E+001
1.615956099323436E+001  1.636282324810569E+001  1.656864222739996E+001  1.677705009075142E+001
1.698807940231272E+001  1.720176313584316E+001  1.741813467986084E+001  1.763722784285972E+001
1.785907685859226E+001  1.808371639141851E+001  1.831118154172255E+001  1.854150785139687E+001
1.877473130939596E+001  1.901088835735963E+001  1.925001589530707E+001  1.949215128740264E+001
1.973733236779395E+001  1.998559744652364E+001  2.023698531551537E+001  2.049153525463510E+001
2.074928703782873E+001  2.101028093933677E+001  2.127455773998734E+001  2.154215873356820E+001
2.181312573327903E+001  2.208750107826485E+001  2.236532764023151E+001  2.264664883014458E+001
2.293150860501232E+001  2.321995147475412E+001  2.351202250915518E+001  2.380776734490889E+001
2.410723219274753E+001  2.441046384466283E+001  2.471750968121733E+001  2.502841767894767E+001
2.534323641786107E+001  2.566201508902599E+001  2.598480350225833E+001  2.631165209390440E+001
2.664261193472159E+001  2.697773473785842E+001  2.731707286693466E+001  2.766067934422338E+001
2.800860785893573E+001  2.836091277560996E+001  2.871764914260613E+001  2.907887270070735E+001
2.944463989182948E+001  2.981500786784029E+001  3.019003449948953E+001  3.056977838545145E+001
3.095429886148078E+001  3.134365600968424E+001  3.173791066790837E+001  3.213712443924562E+001
3.254135970166001E+001  3.295067961773370E+001  3.336514814453633E+001  3.378483004361848E+001