<UPF version="2.0.1">
<PP_INFO>
Generated in analytical, separable form
Author: Goedecker/Hartwigsen/Hutter/Teter
Generation date: Phys.Rev.B58, 3641 (1998); B54, 1703 (1996)
Pseudopotential type: NC
Element: Rh
Functional: SLA-PW-PBX-PBC

Suggested minimum cutoff for wavefunctions:   0. Ry
Suggested minimum cutoff for charge density:   0. Ry
The Pseudo was generated with a Non-Relativistic Calculation
Local Potential: unknown format, L component and cutoff radius: -3   0.0000

Valence configuration:
nl pn  l   occ       Rcut    Rcut US       E pseu

Generation configuration: not available.
Converted from CPMD format using cpmd2upf v.5.0.1 - PG 10Jul2012
Atomic orbitals could not be generated by ld1.x - use with care
</PP_INFO>
<!--                               -->
<!-- END OF HUMAN READABLE SECTION -->
<!--                               -->
<PP_HEADER generated="Generated in analytical, separable form" author="Goedecker/Hartwigsen/Hutter/Teter" date="Phys.Rev.B58, 3641 (1998); B54, 1703 (1996)" comment="Atomic orbitals could not be generated by ld1.x - use with care" element="Rh" pseudo_type="NC" relativistic="no" is_ultrasoft="F" is_paw="F" is_coulomb="F" has_so="F" has_wfc="F" has_gipaw="F" paw_as_gipaw="F" core_correction="F" functional="SLA-PW-PBX-PBC" z_valence="1.700000000000000E+001" total_psenergy="0.000000000000000E+000" wfc_cutoff="0.000000000000000E+000" rho_cutoff="0.000000000000000E+000" l_max="2" l_max_rho="0" l_local="-3" mesh_size="1233" number_of_wfc="0" number_of_proj="6"/>
<PP_MESH dx="1.250000000000000E-002" mesh="1233" xmin="-7.000000000000000E+000" rmax="9.882370550444128E+001" zmesh="4.500000000000000E+001">
<PP_R type="real" size="1233" columns="4">
2.026404367898925E-005  2.051893397042272E-005  2.077703038703516E-005  2.103837325691676E-005
2.130300341542266E-005  2.157096221155353E-005  2.184229151441642E-005  2.211703371976692E-005
2.239523175663357E-005  2.267692909402566E-005  2.296216974772527E-005  2.325099828716486E-005
2.354345984239134E-005  2.383960011111771E-005  2.413946536586351E-005  2.444310246118485E-005
2.475055884099563E-005  2.506188254598072E-005  2.537712222110239E-005  2.569632712320128E-005
2.601954712869276E-005  2.634683274136029E-005  2.667823510024669E-005  2.701380598764477E-005
2.735359783718847E-005  2.769766374204554E-005  2.804605746321366E-005  2.839883343792054E-005
2.875604678812996E-005  2.911775332915467E-005  2.948400957837759E-005  2.985487276408282E-005
3.023040083439764E-005  3.061065246634704E-005  3.099568707502219E-005  3.138556482286404E-005
3.178034662906388E-005  3.218009417908212E-005  3.258486993428673E-005  3.299473714171304E-005
3.340975984394606E-005  3.383000288912737E-005  3.425553194108779E-005  3.468641348960738E-005
3.512271486080482E-005  3.556450422765698E-005  3.601185062065126E-005  3.646482393857169E-005
3.692349495942075E-005  3.738793535147869E-005  3.785821768450165E-005  3.833441544106094E-005
3.881660302802488E-005  3.930485578818491E-005  3.979925001202821E-005  4.029986294965812E-005
4.080677282286460E-005  4.132005883734669E-005  4.183980119508839E-005  4.236608110689059E-005
4.289898080506020E-005  4.343858355625927E-005  4.398497367451548E-005  4.453823653439643E-005
4.509845858434965E-005  4.566572736021020E-005  4.624013149887843E-005  4.682176075216964E-005
4.741070600083796E-005  4.800705926877677E-005  4.861091373739745E-005  4.922236376018926E-005
4.984150487746230E-005  5.046843383127571E-005  5.110324858055413E-005  5.174604831639364E-005
5.239693347756073E-005  5.305600576618607E-005  5.372336816365563E-005  5.439912494670185E-005
5.508338170369686E-005  5.577624535115108E-005  5.647782415041907E-005  5.718822772461555E-005
5.790756707574441E-005  5.863595460204270E-005  5.937350411554335E-005  6.012033085985837E-005
6.087655152818597E-005  6.164228428154419E-005  6.241764876723362E-005  6.320276613753262E-005
6.399775906862762E-005  6.480275177978150E-005  6.561787005274326E-005  6.644324125140134E-005
6.727899434168478E-005  6.812525991171429E-005  6.898217019220686E-005  6.984985907713734E-005
7.072846214465927E-005  7.161811667828947E-005  7.251896168835886E-005  7.343113793373293E-005
7.435478794380604E-005  7.529005604077137E-005  7.623708836217188E-005  7.719603288373452E-005
7.816703944249174E-005  7.915025976019400E-005  8.014584746701624E-005  8.115395812556318E-005
8.217474925517627E-005  8.320838035654623E-005  8.425501293663573E-005  8.531481053391474E-005
8.638793874391401E-005  8.747456524509962E-005  8.857485982507312E-005  8.968899440710130E-005
9.081714307697925E-005  9.195948211023192E-005  9.311618999965732E-005  9.428744748321646E-005
9.547343757227422E-005  9.667434558019488E-005  9.789035915129791E-005  9.912166829017781E-005
1.003684653913926E-004  1.016309452695261E-004  1.029093051896277E-004  1.042037448980358E-004
1.055144666535884E-004  1.068416752592264E-004  1.081855780939947E-004  1.095463851454456E-004
1.109243090424493E-004  1.123195650884181E-004  1.137323712949479E-004  1.151629484158828E-004
1.166115199818085E-004  1.180783123349795E-004  1.195635546646849E-004  1.210674790430607E-004
1.225903204613505E-004  1.241323168666244E-004  1.256937091989580E-004  1.272747414290797E-004
1.288756605964921E-004  1.304967168480723E-004  1.321381634771577E-004  1.338002569631235E-004
1.354832570114586E-004  1.371874265943446E-004  1.389130319917458E-004  1.406603428330166E-004
1.424296321390307E-004  1.442211763648419E-004  1.460352554428804E-004  1.478721528266927E-004
1.497321555352326E-004  1.516155541977073E-004  1.535226430989896E-004  1.554537202256004E-004
1.574090873122693E-004  1.593890498890822E-004  1.613939173292198E-004  1.634240028972986E-004
1.654796237983188E-004  1.675611012272282E-004  1.696687604191103E-004  1.718029307000016E-004
1.739639455383505E-004  1.761521425971223E-004  1.783678637865590E-004  1.806114553176047E-004
1.828832677560007E-004  1.851836560770624E-004  1.875129797211453E-004  1.898716026498075E-004
1.922598934026808E-004  1.946782251550540E-004  1.971269757761835E-004  1.996065278883361E-004
2.021172689265737E-004  2.046595911992920E-004  2.072338919495184E-004  2.098405734169825E-004
2.124800429009670E-004  2.151527128239485E-004  2.178590007960406E-004  2.205993296802447E-004
2.233741276585241E-004  2.261838282987084E-004  2.290288706222387E-004  2.319096991727668E-004
2.348267640856145E-004  2.377805211581095E-004  2.407714319208036E-004  2.437999637095884E-004
2.468665897387179E-004  2.499717891747481E-004  2.531160472114084E-004  2.562998551454140E-004
2.595237104532321E-004  2.627881168688137E-004  2.660935844623027E-004  2.694406297197355E-004
2.728297756237433E-004  2.762615517352685E-004  2.797364942763111E-004  2.832551462137126E-004
2.868180573439972E-004  2.904257843792776E-004  2.940788910342428E-004  2.977779481142406E-004
3.015235336044652E-004  3.053162327602699E-004  3.091566381986140E-004  3.130453499906605E-004
3.169829757555390E-004  3.209701307552862E-004  3.250074379909827E-004  3.290955283000981E-004
3.332350404550601E-004  3.374266212630655E-004  3.416709256671430E-004  3.459686168484909E-004
3.503203663301000E-004  3.547268540816802E-004  3.591887686259083E-004  3.637068071460095E-004
3.682816755946945E-004  3.729140888044661E-004  3.776047705993126E-004  3.823544539078085E-004
3.871638808776336E-004  3.920338029915369E-004  3.969649811847567E-004  4.019581859639178E-004
4.070141975274262E-004  4.121338058873752E-004  4.173178109929869E-004  4.225670228556057E-004
4.278822616752651E-004  4.332643579688443E-004  4.387141526998396E-004  4.442324974097651E-004
4.498202543512087E-004  4.554782966225613E-004  4.612075083044387E-004  4.670087845978229E-004
4.728830319639373E-004  4.788311682658838E-004  4.848541229120616E-004  4.909528370013876E-004
4.971282634703467E-004  5.033813672418883E-004  5.097131253761984E-004  5.161245272233683E-004
5.226165745779802E-004  5.291902818356418E-004  5.358466761514861E-004  5.425867976006674E-004
5.494116993408755E-004  5.563224477768922E-004  5.633201227272210E-004  5.704058175928096E-004
5.775806395278966E-004  5.848457096130070E-004  5.922021630301219E-004  5.996511492400552E-004
6.071938321620570E-004  6.148313903556796E-004  6.225650172049294E-004  6.303959211047355E-004
6.383253256497652E-004  6.463544698256106E-004  6.544846082023842E-004  6.627170111307492E-004
6.710529649404111E-004  6.794937721411132E-004  6.880407516261531E-004  6.966952388784642E-004
7.054585861792878E-004  7.143321628194682E-004  7.233173553134096E-004  7.324155676157192E-004
7.416282213405796E-004  7.509567559838790E-004  7.604026291481341E-004  7.699673167702450E-004
7.796523133521120E-004  7.894591321941548E-004  7.993893056317704E-004  8.094443852747608E-004
8.196259422497781E-004  8.299355674458138E-004  8.403748717627797E-004  8.509454863632147E-004
8.616490629271557E-004  8.724872739102181E-004  8.834618128049182E-004  8.945743944052855E-004
9.058267550748050E-004  9.172206530177233E-004  9.287578685537759E-004  9.404402043963626E-004
9.522694859342264E-004  9.642475615166750E-004  9.763763027423871E-004  9.886576047518560E-004
1.001093386523507E-003  1.013685591173542E-003  1.026436186259558E-003  1.039347164087977E-003
1.052420542025354E-003  1.065658362813588E-003  1.079062694889110E-003  1.092635632706080E-003
1.106379297063643E-003  1.120295835437319E-003  1.134387422314543E-003  1.148656259534431E-003
1.163104576631831E-003  1.177734631185685E-003  1.192548709171781E-003  1.207549125319944E-003
1.222738223475716E-003  1.238118376966587E-003  1.253691988972830E-003  1.269461492903007E-003
1.285429352774189E-003  1.301598063596967E-003  1.317970151765306E-003  1.334548175451288E-003
1.351334725004844E-003  1.368332423358494E-003  1.385543926437187E-003  1.402971923573298E-003
1.420619137926835E-003  1.438488326910946E-003  1.456582282622764E-003  1.474903832279680E-003
1.493455838661106E-003  1.512241200555783E-003  1.531262853214724E-003  1.550523768809859E-003
1.570026956898435E-003  1.589775464893272E-003  1.609772378538922E-003  1.630020822393825E-003
1.650523960318531E-003  1.671284995970053E-003  1.692307173302452E-003  1.713593777073705E-003
1.735148133358959E-003  1.756973610070237E-003  1.779073617482679E-003  1.801451608767406E-003
1.824111080531085E-003  1.847055573362279E-003  1.870288672384676E-003  1.893814007817263E-003
1.917635255541568E-003  1.941756137676009E-003  1.966180423157496E-003  1.990911928330327E-003
2.015954517542500E-003  2.041312103749532E-003  2.066988649125856E-003  2.092988165683926E-003
2.119314715901103E-003  2.145972413354418E-003  2.172965423363336E-003  2.200297963640585E-003
2.227974304951194E-003  2.255998771779802E-003  2.284375743006364E-003  2.313109652590371E-003
2.342204990263653E-003  2.371666302231916E-003  2.401498191885096E-003  2.431705320516643E-003
2.462292408051865E-003  2.493264233785417E-003  2.524625637128084E-003  2.556381518362943E-003
2.588536839411044E-003  2.621096624606723E-003  2.654065961482659E-003  2.687450001564816E-003
2.721253961177377E-003  2.755483122257805E-003  2.790142833182162E-003  2.825238509600792E-003
2.860775635284538E-003  2.896759762981593E-003  2.933196515285116E-003  2.970091585511788E-003
3.007450738591394E-003  3.045279811967610E-003  3.083584716510118E-003  3.122371437438181E-003
3.161646035255858E-003  3.201414646698962E-003  3.241683485693943E-003  3.282458844328819E-003
3.323747093836336E-003  3.365554685589480E-003  3.407888152109522E-003  3.450754108086734E-003
3.494159251413948E-003  3.538110364233118E-003  3.582614313995040E-003  3.627678054532409E-003
3.673308627146368E-003  3.719513161706723E-003  3.766298877766003E-003  3.813673085687528E-003
3.861643187787671E-003  3.910216679492479E-003  3.959401150508856E-003  4.009204286010463E-003
4.059633867838548E-003  4.110697775717874E-003  4.162403988487936E-003  4.214760585349674E-003
4.267775747127871E-003  4.321457757549413E-003  4.375815004537646E-003  4.430855981523005E-003
4.486589288770122E-003  4.543023634721646E-003  4.600167837358948E-003  4.658030825579953E-003
4.716621640594292E-003  4.775949437336014E-003  4.836023485894065E-003  4.896853172960754E-003
4.958448003298441E-003  5.020817601224688E-003  5.083971712116056E-003  5.147920203930864E-003
5.212673068751061E-003  5.278240424343515E-003  5.344632515740939E-003  5.411859716842684E-003
5.479932532035701E-003  5.548861597835858E-003  5.618657684549923E-003  5.689331697958448E-003
5.760894681019813E-003  5.833357815595719E-003  5.906732424198370E-003  5.981029971759643E-003
6.056262067422505E-003  6.132440466354960E-003  6.209577071586831E-003  6.287683935869621E-003
6.366773263559781E-003  6.446857412525676E-003  6.527948896078510E-003  6.610060384927571E-003
6.693204709160049E-003  6.777394860245763E-003  6.862643993067110E-003  6.948965427974530E-003
7.036372652867852E-003  7.124879325303794E-003  7.214499274629995E-003  7.305246504145871E-003
7.397135193290660E-003  7.490179699858986E-003  7.584394562244306E-003  7.679794501710547E-003
7.776394424692345E-003  7.874209425124196E-003  7.973254786798927E-003  8.073545985755808E-003
8.175098692698722E-003  8.277928775444735E-003  8.382052301403490E-003  8.487485540087757E-003
8.594244965655586E-003  8.702347259484424E-003  8.811809312777622E-003  8.922648229203706E-003
9.034881327568871E-003  9.148526144523080E-003  9.263600437300189E-003  9.380122186492569E-003
9.498109598860596E-003  9.617581110177497E-003  9.738555388109986E-003  9.861051335135112E-003
9.985088091493817E-003  1.011068503818164E-002  1.023786179997702E-002  1.036663824850774E-002
1.049703450535589E-002  1.062907094520187E-002  1.076276819900806E-002  1.089814715724236E-002
1.103522897314244E-002  1.117403506602091E-002  1.131458712461221E-002  1.145690711046143E-002
1.160101726135591E-002  1.174694009479994E-002  1.189469841153312E-002  1.204431529909305E-002
1.219581413542281E-002  1.234921859252381E-002  1.250455264015458E-002  1.266184054957607E-002
1.282110689734415E-002  1.298237656914969E-002  1.314567476370701E-002  1.331102699669124E-002
1.347845910472519E-002  1.364799724941640E-002  1.381966792144490E-002  1.399349794470245E-002
1.416951448048386E-002  1.434774503173094E-002  1.452821744732995E-002  1.471095992646298E-002
1.489600102301421E-002  1.508336965003144E-002  1.527309508424383E-002  1.546520697063649E-002
1.565973532708253E-002  1.585671054903339E-002  1.605616341426828E-002  1.625812508770316E-002
1.646262712626041E-002  1.666970148379960E-002  1.687938051611042E-002  1.709169698596824E-002
1.730668406825345E-002  1.752437535513504E-002  1.774480486131950E-002  1.796800702936562E-002
1.819401673506627E-002  1.842286929289779E-002  1.865460046153795E-002  1.888924644945330E-002
1.912684392055685E-002  1.936742999993685E-002  1.961104227965768E-002  1.985771882463369E-002
2.010749817857689E-002  2.036041937001951E-002  2.061652191841229E-002  2.087584584029947E-002
2.113843165557143E-002  2.140432039379605E-002  2.167355360062962E-002  2.194617334430848E-002
2.222222222222223E-002  2.250174336756966E-002  2.278478045609843E-002  2.307137771292946E-002
2.336157991946721E-002  2.365543242039688E-002  2.395298113076960E-002  2.425427254317672E-002
2.455935373501440E-002  2.486827237583958E-002  2.518107673481837E-002  2.549781568826828E-002
2.581853872729519E-002  2.614329596552646E-002  2.647213814694130E-002  2.680511665379958E-002
2.714228351467045E-002  2.748369141256189E-002  2.782939369315255E-002  2.817944437312711E-002
2.853389814861649E-002  2.889281040374425E-002  2.925623721928049E-002  2.962423538140452E-002
2.999686239057786E-002  3.037417647052882E-002  3.075623657735004E-002  3.114310240871053E-002
3.153483441318351E-002  3.193149379969167E-002  3.233314254707115E-002  3.273984341375591E-002
3.315165994758380E-002  3.356865649572607E-002  3.399089821474176E-002  3.441845108075853E-002
3.485138189978154E-002  3.528975831813209E-002  3.573364883301741E-002  3.618312280323357E-002
3.663825046000287E-002  3.709910291794764E-002  3.756575218620205E-002  3.803827117966367E-002
3.851673373038658E-002  3.900121459911776E-002  3.949178948697865E-002  3.998853504729354E-002
4.049152889756688E-002  4.100084963161112E-002  4.151657683182718E-002  4.203879108163934E-002
4.256757397808660E-002  4.310300814457233E-002  4.364517724377440E-002  4.419416599071762E-002
4.475006016601061E-002  4.531294662924925E-002  4.588291333258861E-002  4.646004933448570E-002
4.704444481361501E-002  4.763619108295911E-002  4.823538060407652E-002  4.884210700154894E-002
4.945646507761042E-002  5.007855082696021E-002  5.070846145176233E-002  5.134629537683345E-002
5.199215226502205E-002  5.264613303278091E-002  5.330833986593553E-002  5.397887623565087E-002
5.465784691459891E-002  5.534535799332960E-002  5.604151689684776E-002  5.674643240139840E-002
5.746021465146327E-002  5.818297517697116E-002  5.891482691072462E-002  5.965588420604603E-002
6.040626285464547E-002  6.116608010471346E-002  6.193545467924114E-002  6.271450679457115E-002
6.350335817918144E-002  6.430213209270583E-002  6.511095334519339E-002  6.592994831661041E-002
6.675924497658745E-002  6.759897290441479E-002  6.844926330928962E-002  6.931024905081763E-002
7.018206465977264E-002  7.106484635911726E-002  7.195873208528805E-002  7.286386150974834E-002
7.378037606081220E-002  7.470841894574290E-002  7.564813517312935E-002  7.659967157554391E-002
7.756317683248540E-002  7.853880149361046E-002  7.952669800225734E-002  8.052702071926542E-002
8.153992594709436E-002  8.256557195424680E-002  8.360411899999803E-002  8.465572935943694E-002
8.572056734882169E-002  8.679879935125454E-002  8.789059384267953E-002  8.899612141820726E-002
9.011555481877058E-002  9.124906895811588E-002  9.239684095013355E-002  9.355905013653250E-002
9.473587811486266E-002  9.592750876688992E-002  9.713412828732801E-002  9.835592521293192E-002
9.959309045195705E-002  1.008458173139890E-001  1.021143015401487E-001  1.033987413336772E-001
1.046993373909054E-001  1.060162929326135E-001  1.073498137357840E-001  1.087001081657557E-001
1.100673872087804E-001  1.114518645049903E-001  1.128537563817796E-001  1.142732818876064E-001
1.157106628262189E-001  1.171661237913132E-001  1.186398922016262E-001  1.201321983364704E-001
1.216432753717156E-001  1.231733594162228E-001  1.247226895487369E-001  1.262915078552432E-001
1.278800594667941E-001  1.294885925978106E-001  1.311173585848671E-001  1.327666119259628E-001
1.344366103202878E-001  1.361276147084886E-001  1.378398893134415E-001  1.395737016815370E-001
1.413293227244852E-001  1.431070267616458E-001  1.449070915628914E-001  1.467297983920096E-001
1.485754320506505E-001  1.504442809228284E-001  1.523366370199818E-001  1.542527960266009E-001
1.561930573464288E-001  1.581577241492444E-001  1.601471034182327E-001  1.621615059979519E-001
1.642012466429034E-001  1.662666440667130E-001  1.683580209919300E-001  1.704757042004541E-001
1.726200245845950E-001  1.747913171987754E-001  1.769899213118839E-001  1.792161804602861E-001
1.814704425015035E-001  1.837530596685661E-001  1.860643886250504E-001  1.884047905208084E-001
1.907746310483977E-001  1.931742805002224E-001  1.956041138263914E-001  1.980645106933054E-001
2.005558555429806E-001  2.030785376531184E-001  2.056329511979311E-001  2.082194953097319E-001
2.108385741413007E-001  2.134905969290335E-001  2.161759780568864E-001  2.188951371211242E-001
2.216484989958828E-001  2.244364938995568E-001  2.272595574620223E-001  2.301181307927043E-001
2.330126605495018E-001  2.359435990085780E-001  2.389114041350302E-001  2.419165396544476E-001
2.449594751253690E-001  2.480406860126528E-001  2.511606537617687E-001  2.543198658740251E-001
2.575188159827422E-001  2.607580039303825E-001  2.640379358466535E-001  2.673591242275898E-001
2.707220880156329E-001  2.741273526807169E-001  2.775754503023736E-001  2.810669196528718E-001
2.846023062814009E-001  2.881821625993142E-001  2.918070479664450E-001  2.954775287785064E-001
2.991941785555933E-001  3.029575780317947E-001  3.067683152459356E-001  3.106269856334587E-001
3.145341921194624E-001  3.184905452129097E-001  3.224966631020206E-001  3.265531717508655E-001
3.306607049971743E-001  3.348199046513732E-001  3.390314205968704E-001  3.432959108916006E-001
3.476140418708484E-001  3.519864882513650E-001  3.564139332367928E-001  3.608970686244187E-001
3.654365949132681E-001  3.700332214135589E-001  3.746876663575343E-001  3.794006570116858E-001
3.841729297903922E-001  3.890052303709842E-001  3.938983138102589E-001  3.988529446624589E-001
4.038698970987348E-001  4.089499550281123E-001  4.140939122199782E-001  4.193025724281087E-001
4.245767495162591E-001  4.299172675853293E-001  4.353249611021334E-001  4.408006750297851E-001
4.463452649597261E-001  4.519595972454138E-001  4.576445491376896E-001  4.634010089218537E-001
4.692298760564584E-001  4.751320613138523E-001  4.811084869224904E-001  4.871600867110327E-001
4.932878062542588E-001  4.994926030208139E-001  5.057754465228164E-001  5.121373184673464E-001
5.185792129098382E-001  5.251021364094051E-001  5.317071081861144E-001  5.383951602802443E-001
5.451673377135414E-001  5.520246986525077E-001  5.589683145737416E-001  5.659992704313577E-001
5.731186648265127E-001  5.803276101790662E-001  5.876272329013956E-001  5.950186735744030E-001
6.025030871257313E-001  6.100816430102247E-001  6.177555253926595E-001  6.255259333327701E-001
6.333940809726065E-001  6.413611977262452E-001  6.494285284718878E-001  6.575973337463771E-001
6.658688899421561E-001  6.742444895067097E-001  6.827254411445096E-001  6.913130700215039E-001
7.000087179721767E-001  7.088137437092115E-001  7.177295230357932E-001  7.267574490605816E-001
7.358989324153851E-001  7.451554014755767E-001  7.545283025832793E-001  7.640191002733600E-001
7.736292775022677E-001  7.833603358797459E-001  7.932137959034643E-001  8.031911971965988E-001
8.132940987484002E-001  8.235240791577910E-001  8.338827368800226E-001  8.443716904764396E-001
8.549925788673811E-001  8.657470615882663E-001  8.766368190489012E-001  8.876635527960435E-001
8.988289857792758E-001  9.101348626202183E-001  9.215829498851282E-001  9.331750363609336E-001
9.449129333347290E-001  9.567984748767987E-001  9.688335181271895E-001  9.810199435858945E-001
9.933596554066857E-001  1.005854581694640E+000  1.018506674807411E+000  1.031317911660289E+000
1.044290294035096E+000  1.057425848892971E+000  1.070726628691085E+000  1.084194711703343E+000
1.097832202345116E+000  1.111641231502062E+000  1.125623956863081E+000  1.139782563257461E+000
1.154119262996255E+000  1.168636296217966E+000  1.183335931238570E+000  1.198220464905946E+000
1.213292222958762E+000  1.228553560389876E+000  1.244006861814315E+000  1.259654541841863E+000
1.275499045454361E+000  1.291542848387734E+000  1.307788457518831E+000  1.324238411257133E+000
1.340895279941378E+000  1.357761666241186E+000  1.374840205563732E+000  1.392133566465530E+000
1.409644451069408E+000  1.427375595486709E+000  1.445329770244822E+000  1.463509780720083E+000
1.481918467576116E+000  1.500558707207692E+000  1.519433412190181E+000  1.538545531734637E+000
1.557898052148620E+000  1.577493997302821E+000  1.597336429103535E+000  1.617428447971104E+000
1.637773193324352E+000  1.658373844071133E+000  1.679233619105037E+000  1.700355777808353E+000
1.721743620561353E+000  1.743400489257981E+000  1.765329767828031E+000  1.787534882765896E+000
1.810019303665959E+000  1.832786543764734E+000  1.855840160489806E+000  1.879183756015691E+000
1.902820977826681E+000  1.926755519286776E+000  1.950991120216774E+000  1.975531567478630E+000
2.000380695567153E+000  2.025542387209165E+000  2.051020573970175E+000  2.076819236868704E+000
2.102942406998314E+000  2.129394166157488E+000  2.156178647487410E+000  2.183300036117779E+000
2.210762569820752E+000  2.238570539673092E+000  2.266728290726661E+000  2.295240222687352E+000
2.324110790602538E+000  2.353344505557198E+000  2.382945935378768E+000  2.412919705350882E+000
2.443270498936080E+000  2.474003058507608E+000  2.505122186090427E+000  2.536632744111534E+000
2.568539656159728E+000  2.600847907754932E+000  2.633562547127185E+000  2.666688686005455E+000
2.700231500416332E+000  2.734196231492814E+000  2.768588186293232E+000  2.803412738630493E+000
2.838675329911754E+000  2.874381469988644E+000  2.910536738018194E+000  2.947146783334592E+000
2.984217326331901E+000  3.021754159357888E+000  3.059763147619083E+000  3.098250230097229E+000
3.137221420477267E+000  3.176682808086978E+000  3.216640558848467E+000  3.257100916241582E+000
3.298070202279483E+000  3.339554818496466E+000  3.381561246948214E+000  3.424096051224639E+000
3.467165877475447E+000  3.510777455448614E+000  3.554937599541926E+000  3.599653209867741E+000
3.644931273331152E+000  3.690778864721691E+000  3.737203147818791E+000  3.784211376511136E+000
3.831810895930096E+000  3.880009143597429E+000  3.928813650587388E+000  3.978232042703485E+000
4.028272041670030E+000  4.078941466338667E+000  4.130248233910092E+000  4.182200361171122E+000
4.234805965747337E+000  4.288073267371479E+000  4.342010589167799E+000  4.396626358952568E+000
4.451929110550930E+000  4.507927485130335E+000  4.564630232550742E+000  4.622046212731792E+000
4.680184397037213E+000  4.739053869676579E+000  4.798663829124762E+000  4.859023589559204E+000
4.920142582315270E+000  4.982030357359935E+000  5.044696584783958E+000  5.108151056312868E+000
5.172403686836939E+000  5.237464515960413E+000  5.303343709570215E+000  5.370051561424373E+000
5.437598494760458E+000  5.505995063924230E+000  5.575251956018769E+000  5.645379992574378E+000
5.716390131239444E+000  5.788293467492601E+000  5.861101236376427E+000  5.934824814252936E+000
6.009475720581173E+000  6.085065619717123E+000  6.161606322736316E+000  6.239109789279323E+000
6.317588129420465E+000  6.397053605560068E+000  6.477518634340449E+000  6.558995788586056E+000
6.641497799268013E+000  6.725037557493330E+000  6.809628116519207E+000  6.895282693792587E+000
6.982014673015433E+000  7.069837606235957E+000  7.158765215966145E+000  7.248811397325956E+000
7.339990220214420E+000  7.432315931508119E+000  7.525802957287279E+000  7.620465905089875E+000
7.716319566194105E+000  7.813378917929529E+000  7.911659126017321E+000  8.011175546939949E+000
8.111943730340641E+000  8.213979421453086E+000  8.317298563561604E+000  8.421917300492353E+000
8.527851979135827E+000  8.635119152001085E+000  8.743735579802136E+000  8.853718234076799E+000
8.965084299838567E+000  9.077851178261790E+000  9.192036489400639E+000  9.307658074942310E+000
9.424734000994768E+000  9.543282560909651E+000  9.663322278140637E+000  9.784871909137754E+000
9.907950446278159E+000  1.003257712083368E+001  1.015877140597576E+001  1.028655301981821E+001
1.041594192849815E+001  1.054695834929583E+001  1.067962275379354E+001  1.081395587107439E+001
1.094997869096126E+001  1.108771246729649E+001  1.122717872126287E+001  1.136839924474632E+001
1.151139610374094E+001  1.165619164179690E+001  1.180280848351158E+001  1.195126953806482E+001
1.210159800279843E+001  1.225381736684087E+001  1.240795141477747E+001  1.256402423036678E+001
1.272206020030381E+001  1.288208401803037E+001  1.304412068759354E+001  1.320819552755263E+001
1.337433417493516E+001  1.354256258924284E+001  1.371290705650764E+001  1.388539419339914E+001
1.406005095138342E+001  1.423690462093424E+001  1.441598283579730E+001  1.459731357730799E+001
1.478092517876361E+001  1.496684632985043E+001  1.515510608112657E+001  1.534573384856120E+001
1.553875941813080E+001  1.573421295047334E+001  1.593212498560089E+001  1.613252644767158E+001
1.633544864982163E+001  1.654092329905793E+001  1.674898250121249E+001  1.695965876595892E+001
1.717298501189222E+001  1.738899457167235E+001  1.760772119723249E+001  1.782919906505288E+001
1.805346278150098E+001  1.828054738823872E+001  1.851048836769796E+001  1.874332164862452E+001
1.897908361169227E+001  1.921781109518760E+001  1.945954140076547E+001  1.970431229927797E+001
1.995216203667596E+001  2.020312933998518E+001  2.045725342335735E+001  2.071457399419752E+001
2.097513125936842E+001  2.123896593147284E+001  2.150611923521506E+001  2.177663291384232E+001
2.205054923566725E+001  2.232791100067247E+001  2.260876154719803E+001  2.289314475871322E+001
2.318110507067342E+001  2.347268747746323E+001  2.376793753942696E+001  2.406690138998747E+001
2.436962574285466E+001  2.467615789932456E+001  2.498654575567024E+001  2.530083781062578E+001
2.561908317296419E+001  2.594133156917081E+001  2.626763335121316E+001  2.659803950440852E+001
2.693260165539061E+001  2.727137208017615E+001  2.761440371233326E+001  2.796175015125237E+001
2.831346567052120E+001  2.866960522640527E+001  2.903022446643473E+001  2.939537973809952E+001
2.976512809765376E+001  3.013952731903085E+001  3.051863590287091E+001  3.090251308566144E+001
3.129121884899326E+001  3.168481392893272E+001  3.208335982551178E+001  3.248691881233773E+001
3.289555394632325E+001  3.330932907753940E+001  3.372830885919229E+001  3.415255875772516E+001
3.458214506304788E+001  3.501713489889462E+001  3.545759623331223E+001  3.590359788928034E+001
3.635520955546504E+001  3.681250179710808E+001  3.727554606705252E+001  3.774441471690764E+001
3.821918100835387E+001  3.869991912459020E+001  3.918670418192529E+001  3.967961224151482E+001
4.017872032124588E+001  4.068410640777138E+001  4.119584946869556E+001  4.171402946491278E+001
4.223872736310179E+001  4.277002514837664E+001  4.330800583709722E+001  4.385275348984067E+001
4.440435322453598E+001  4.496289122976403E+001  4.552845477822444E+001  4.610113224037229E+001
4.668101309822621E+001  4.726818795934993E+001  4.786274857101022E+001  4.846478783451225E+001
4.907439981971579E+001  4.969167977973382E+001  5.031672416581588E+001  5.094963064241907E+001
5.159049810246798E+001  5.223942668280706E+001  5.289651777984728E+001  5.356187406540936E+001
5.423559950276668E+001  5.491779936288950E+001  5.560858024089389E+001  5.630805007269747E+001