<UPF version="2.0.1">
<PP_INFO>
Generated in analytical, separable form
Author: Goedecker/Hartwigsen/Hutter/Teter
Generation date: Phys.Rev.B58, 3641 (1998); B54, 1703 (1996)
Pseudopotential type: NC
Element: Rn
Functional: SLA-PW-PBX-PBC

Suggested minimum cutoff for wavefunctions:   0. Ry
Suggested minimum cutoff for charge density:   0. Ry
The Pseudo was generated with a Non-Relativistic Calculation
Local Potential: unknown format, L component and cutoff radius: -3   0.0000

Valence configuration:
nl pn  l   occ       Rcut    Rcut US       E pseu

Generation configuration: not available.
Converted from CPMD format using cpmd2upf v.5.0.1 - PG 10Jul2012
Atomic orbitals could not be generated by ld1.x - use with care
</PP_INFO>
<!--                               -->
<!-- END OF HUMAN READABLE SECTION -->
<!--                               -->
<PP_HEADER generated="Generated in analytical, separable form" author="Goedecker/Hartwigsen/Hutter/Teter" date="Phys.Rev.B58, 3641 (1998); B54, 1703 (1996)" comment="Atomic orbitals could not be generated by ld1.x - use with care" element="Rn" pseudo_type="NC" relativistic="no" is_ultrasoft="F" is_paw="F" is_coulomb="F" has_so="F" has_wfc="F" has_gipaw="F" paw_as_gipaw="F" core_correction="F" functional="SLA-PW-PBX-PBC" z_valence="8.000000000000000E+000" total_psenergy="0.000000000000000E+000" wfc_cutoff="0.000000000000000E+000" rho_cutoff="0.000000000000000E+000" l_max="2" l_max_rho="0" l_local="-3" mesh_size="1285" number_of_wfc="0" number_of_proj="6"/>
<PP_MESH dx="1.250000000000000E-002" mesh="1285" xmin="-7.000000000000000E+000" rmax="9.905276656475719E+001" zmesh="8.600000000000000E+001">
<PP_R type="real" size="1285" columns="4">
1.060327866923856E-005  1.073665149615142E-005  1.087170194670444E-005  1.100845112280528E-005
1.114692039179093E-005  1.128713138976638E-005  1.142910602498533E-005  1.157286648127339E-005
1.171843522149431E-005  1.186583499105994E-005  1.201508882148415E-005  1.216622003398161E-005
1.231925224311175E-005  1.247420936046857E-005  1.263111559841695E-005  1.278999547387579E-005
1.295087381214888E-005  1.311377575080386E-005  1.327872674360009E-005  1.344575256446579E-005
1.361487931152528E-005  1.378613341117689E-005  1.395954162222210E-005  1.413513104004668E-005
1.431292910085443E-005  1.449296358595406E-005  1.467526262610017E-005  1.485985470588866E-005
1.504676866820753E-005  1.523603371874372E-005  1.542767943054641E-005  1.562173574864799E-005
1.581823299474295E-005  1.601720187192578E-005  1.621867346948836E-005  1.642267926777769E-005
1.662925114311482E-005  1.683842137277553E-005  1.705022264003376E-005  1.726468803926845E-005
1.748185108113456E-005  1.770174569779920E-005  1.792440624824361E-005  1.814986752363177E-005
1.837816475274671E-005  1.860933360749494E-005  1.884341020848031E-005  1.908043113064798E-005
1.932043340899923E-005  1.956345454437839E-005  1.980953250933226E-005  2.005870575404352E-005
2.031101321233860E-005  2.056649430777117E-005  2.082518895978221E-005  2.108713758993739E-005
2.135238112824311E-005  2.162096101954187E-005  2.189291922998811E-005  2.216829825360554E-005
2.244714111892685E-005  2.272949139571706E-005  2.301539320178136E-005  2.330489120985859E-005
2.359803065460156E-005  2.389485733964487E-005  2.419541764476197E-005  2.449975853311202E-005
2.480792755857800E-005  2.511997287319714E-005  2.543594323468471E-005  2.575588801405252E-005
2.607985720332330E-005  2.640790142334194E-005  2.674007193168530E-005  2.707642063067109E-005
2.741700007546783E-005  2.776186348230667E-005  2.811106473679655E-005  2.846465840234399E-005
2.882269972867859E-005  2.918524466048603E-005  2.955234984614951E-005  2.992407264660116E-005
3.030047114428486E-005  3.068160415223165E-005  3.106753122324942E-005  3.145831265922822E-005
3.185400952056242E-005  3.225468363569173E-005  3.266039761076178E-005  3.307121483940660E-005
3.348719951265399E-005  3.390841662895544E-005  3.433493200434240E-005  3.476681228271001E-005
3.520412494623041E-005  3.564693832589701E-005  3.609532161220127E-005  3.654934486594396E-005
3.700907902918218E-005  3.747459593631426E-005  3.794596832530405E-005  3.842326984904630E-005
3.890657508687526E-005  3.939595955621758E-005  3.989149972439226E-005  4.039327302055876E-005
4.090135784781545E-005  4.141583359545035E-005  4.193678065134570E-005  4.246428041453888E-005
4.299841530794107E-005  4.353926879121605E-005  4.408692537382102E-005  4.464147062821120E-005
4.520299120321082E-005  4.577157483755213E-005  4.634731037358477E-005  4.693028777115766E-005
4.752059812167519E-005  4.811833366233066E-005  4.872358779051837E-005  4.933645507842722E-005
4.995703128781791E-005  5.058541338498568E-005  5.122169955591170E-005  5.186598922160467E-005
5.251838305363565E-005  5.317898298986829E-005  5.384789225038658E-005  5.452521535362339E-005
5.521105813269160E-005  5.590552775192081E-005  5.660873272360190E-005  5.732078292494246E-005
5.804178961523508E-005  5.877186545324203E-005  5.951112451479832E-005  6.025968231063634E-005
6.101765580443471E-005  6.178516343109390E-005  6.256232511524210E-005  6.334926228997360E-005
6.414609791582293E-005  6.495295649997791E-005  6.576996411573381E-005  6.659724842219285E-005
6.743493868421100E-005  6.828316579259596E-005  6.914206228455923E-005  7.001176236442511E-005
7.089240192460044E-005  7.178411856680823E-005  7.268705162358792E-005  7.360134218006682E-005
7.452713309600446E-005  7.546456902811496E-005  7.641379645266998E-005  7.737496368838575E-005
7.834822091959845E-005  7.933372021973056E-005  8.033161557505270E-005  8.134206290874438E-005
8.236522010525720E-005  8.340124703498487E-005  8.445030557924292E-005  8.551255965556322E-005
8.658817524330632E-005  8.767732040959615E-005  8.878016533558095E-005  8.989688234302408E-005
9.102764592122992E-005  9.217263275430818E-005  9.333202174878086E-005  9.450599406153734E-005
9.569473312813988E-005  9.689842469148615E-005  9.811725683083183E-005  9.935141999117837E-005
1.006011070130306E-004  1.018665131625282E-004  1.031478361619565E-004  1.044452762206410E-004
1.057590360662304E-004  1.070893209763737E-004  1.084363388107945E-004  1.098003000437699E-004
1.111814177970176E-004  1.125799078729963E-004  1.139959887886259E-004  1.154298818094304E-004
1.168818109841115E-004  1.183520031795567E-004  1.198406881162877E-004  1.213480984043547E-004
1.228744695796820E-004  1.244200401408713E-004  1.259850515864670E-004  1.275697484526916E-004
1.291743783516547E-004  1.307991920100426E-004  1.324444433082951E-004  1.341103893202748E-004
1.357972903534354E-004  1.375054099894956E-004  1.392350151256235E-004  1.409863760161407E-004
1.427597663147494E-004  1.445554631172917E-004  1.463737470050465E-004  1.482149020885706E-004
1.500792160520915E-004  1.519669801984592E-004  1.538784894946620E-004  1.558140426179166E-004
1.577739420023364E-004  1.597584938861877E-004  1.617680083597399E-004  1.638027994137177E-004
1.658631849883634E-004  1.679494870231149E-004  1.700620315069096E-004  1.722011485291211E-004
1.743671723311361E-004  1.765604413585808E-004  1.787812983142027E-004  1.810300902114197E-004
1.833071684285407E-004  1.856128887636699E-004  1.879476114903009E-004  1.903117014136096E-004
1.927055279274565E-004  1.951294650721043E-004  1.975838915926636E-004  2.000691909982719E-004
2.025857516220176E-004  2.051339666816182E-004  2.077142343408611E-004  2.103269577718174E-004
2.129725452178393E-004  2.156514100573475E-004  2.183639708684234E-004  2.211106514942123E-004
2.238918811091504E-004  2.267080942860232E-004  2.295597310638695E-004  2.324472370167376E-004
2.353710633233069E-004  2.383316668373867E-004  2.413295101592993E-004  2.443650617081631E-004
2.474387957950834E-004  2.505511926972648E-004  2.537027387330555E-004  2.568939263379354E-004
2.601252541414605E-004  2.633972270451741E-004  2.667103563014992E-004  2.700651595936230E-004
2.734621611163850E-004  2.769018916581846E-004  2.803848886839171E-004  2.839116964189539E-004
2.874828659341791E-004  2.910989552320948E-004  2.947605293340110E-004  2.984681603683306E-004
3.022224276599459E-004  3.060239178207594E-004  3.098732248413429E-004  3.137709501837498E-004
3.177177028754950E-004  3.217140996047160E-004  3.257607648165328E-004  3.298583308106174E-004
3.340074378399934E-004  3.382087342110753E-004  3.424628763849685E-004  3.467705290800432E-004
3.511323653757965E-004  3.555490668180243E-004  3.600213235253127E-004  3.645498342968708E-004
3.691353067217204E-004  3.737784572892566E-004  3.784800115012027E-004  3.832407039849694E-004
3.880612786084428E-004  3.929424885962158E-004  3.978850966472794E-004  4.028898750541980E-004
4.079576058237795E-004  4.130890807992670E-004  4.182851017840659E-004  4.235464806670260E-004
4.288740395493025E-004  4.342686108728096E-004  4.397310375502917E-004  4.452621730970309E-004
4.508628817642094E-004  4.565340386739513E-004  4.622765299560619E-004  4.680912528864866E-004
4.739791160275142E-004  4.799410393697389E-004  4.859779544758130E-004  4.920908046260037E-004
4.982805449655835E-004  5.045481426540742E-004  5.108945770163654E-004  5.173208396957387E-004
5.238279348088119E-004  5.304168791024350E-004  5.370887021125595E-004  5.438444463251044E-004
5.506851673388481E-004  5.576119340303660E-004  5.646258287210462E-004  5.717279473462045E-004
5.789193996263250E-004  5.862013092404578E-004  5.935748140017956E-004  6.010410660354580E-004
6.086012319585164E-004  6.162564930622771E-004  6.240080454968620E-004  6.318571004581104E-004
6.398048843768283E-004  6.478526391104235E-004  6.560016221369462E-004  6.642531067515731E-004
6.726083822655638E-004  6.810687542077154E-004  6.896355445283575E-004  6.983100918059067E-004
7.070937514560230E-004  7.159878959433981E-004  7.249939149962027E-004  7.341132158232372E-004
7.433472233338092E-004  7.526973803603786E-004  7.621651478840042E-004  7.717520052626232E-004
7.814594504622068E-004  7.912890002908166E-004  8.012421906356114E-004  8.113205767028333E-004
8.215257332608093E-004  8.318592548860146E-004  8.423227562122267E-004  8.529178721828155E-004
8.636462583062082E-004  8.745095909145628E-004  8.855095674257018E-004  8.966479066083342E-004
9.079263488506183E-004  9.193466564321010E-004  9.309106137990761E-004  9.426200278434102E-004
9.544767281848700E-004  9.664825674570066E-004  9.786394215966325E-004  9.909491901369399E-004
1.003413796504309E-003  1.016035188318842E-003  1.028815337698690E-003  1.041756241568194E-003
1.054859921969913E-003  1.068128426380569E-003  1.081563828030971E-003  1.095168226229962E-003
1.108943746692438E-003  1.122892541871498E-003  1.137016791294768E-003  1.151318701904957E-003
1.165800508404695E-003  1.180464473605710E-003  1.195312888782400E-003  1.210348074029845E-003
1.225572378626330E-003  1.240988181400421E-003  1.256597891102666E-003  1.272403946781964E-003
1.288408818166673E-003  1.304615006050509E-003  1.321025042683300E-003  1.337641492166656E-003
1.354466950854616E-003  1.371504047759332E-003  1.388755444961857E-003  1.406223838028101E-003
1.423911956430023E-003  1.441822563972107E-003  1.459958459223224E-003  1.478322475953903E-003
1.496917483579119E-003  1.515746387606648E-003  1.534812130091049E-003  1.554117690093377E-003
1.573666084146660E-003  1.593460366727238E-003  1.613503630732038E-003  1.633799007961839E-003
1.654349669610624E-003  1.675158826761085E-003  1.696229730886365E-003  1.717565674358103E-003
1.739169990960873E-003  1.761046056413100E-003  1.783197288894518E-003  1.805627149580268E-003
1.828339143181717E-003  1.851336818494073E-003  1.874623768950893E-003  1.898203633185563E-003
1.922080095599844E-003  1.946256886939565E-003  1.970737784877560E-003  1.995526614603939E-003
2.020627249423781E-003  2.046043611362344E-003  2.071779671777890E-003  2.097839451982219E-003
2.124227023869008E-003  2.150946510550051E-003  2.178002086999501E-003  2.205397980706225E-003
2.233138472334351E-003  2.261227896392135E-003  2.289670641909233E-003  2.318471153122503E-003
2.347633930170412E-003  2.377163529796210E-003  2.407064566059915E-003  2.437341711059277E-003
2.467999695659804E-003  2.499043310233961E-003  2.530477405409686E-003  2.562306892828301E-003
2.594536745911975E-003  2.627172000640825E-003  2.660217756339797E-003  2.693679176475452E-003
2.727561489462764E-003  2.761869989482072E-003  2.796610037306305E-003  2.831787061138614E-003
2.867406557460541E-003  2.903474091890856E-003  2.939995300055192E-003  2.976975888466629E-003
3.014421635417344E-003  3.052338391881481E-003  3.090732082429380E-003  3.129608706153302E-003
3.168974337604799E-003  3.208835127743875E-003  3.249197304900086E-003  3.290067175745732E-003
3.331451126281281E-003  3.373355622833203E-003  3.415787213064337E-003  3.458752526996985E-003
3.502258278048863E-003  3.546311264082086E-003  3.590918368465348E-003  3.636086561149464E-003
3.681822899756434E-003  3.728134530682217E-003  3.775028690213370E-003  3.822512705657724E-003
3.870593996489298E-003  3.919280075507609E-003  3.968578550011556E-003  4.018497122988077E-003
4.069043594315761E-003  4.120225861983591E-003  4.172051923325020E-003  4.224529876267574E-003
4.277667920598168E-003  4.331474359244338E-003  4.385957599571594E-003  4.441126154697082E-003
4.496988644819783E-003  4.553553798567431E-003  4.610830454360384E-003  4.668827561792637E-003
4.727554183030224E-003  4.787019494227193E-003  4.847232786959402E-003  4.908203469676345E-003
4.969941069171242E-003  5.032455232069621E-003  5.095755726336621E-003  5.159852442803256E-003
5.224755396711881E-003  5.290474729281089E-003  5.357020709290302E-003  5.424403734684285E-003
5.492634334197847E-003  5.561723169000979E-003  5.631681034364682E-003  5.702518861347748E-003
5.774247718504764E-003  5.846878813615595E-003  5.920423495436621E-003  5.994893255474003E-003
6.070299729779257E-003  6.146654700767413E-003  6.223970099058028E-003  6.302258005339388E-003
6.381530652256123E-003  6.461800426320600E-003  6.543079869848325E-003  6.625381682917712E-003
6.708718725354498E-003  6.793104018741117E-003  6.878550748451340E-003  6.965072265710531E-003
7.052682089681787E-003  7.141393909578349E-003  7.231221586802562E-003  7.322179157111747E-003
7.414280832811320E-003  7.507541004975492E-003  7.601974245695901E-003  7.697595310358537E-003
7.794419139949297E-003  7.892460863388542E-003  7.991735799895028E-003  8.092259461379561E-003
8.194047554868763E-003  8.297115984959335E-003  8.401480856303168E-003  8.507158476123745E-003
8.614165356764165E-003  8.722518218267233E-003  8.832233990988009E-003  8.943329818239197E-003
9.055823058969828E-003  9.169731290477639E-003  9.285072311155551E-003  9.401864143272707E-003
9.520125035790489E-003  9.639873467213962E-003  9.761128148479159E-003  9.883908025876726E-003
1.000823228401230E-002  1.013412034880416E-002  1.026159189051856E-002  1.039066682684321E-002
1.052136532599953E-002  1.065370780989393E-002  1.078771495730876E-002  1.092340770713344E-002
1.106080726163621E-002  1.119993508977700E-002  1.134081293056201E-002  1.148346279644049E-002
1.162790697674419E-002  1.177416804117017E-002  1.192226884330732E-002  1.207223252420727E-002
1.222408251600028E-002  1.237784254555651E-002  1.253353663819340E-002  1.269118912142968E-002
1.285082462878661E-002  1.301246810363699E-002  1.317614480310264E-002  1.334188030200084E-002
1.350970049684051E-002  1.367963160986850E-002  1.385170019316696E-002  1.402593313280211E-002
1.420235765302524E-002  1.438100132052657E-002  1.456189204874261E-002  1.474505810221767E-002
1.493052810102026E-002  1.511833102521502E-002  1.530849621939096E-002  1.550105339724655E-002
1.569603264623260E-002  1.589346443225345E-002  1.609337960442735E-002  1.629580939990667E-002
1.650078544875881E-002  1.670833977890843E-002  1.691850482114188E-002  1.713131341417461E-002
1.734679880978222E-002  1.756499467799620E-002  1.778593511236488E-002  1.800965463528063E-002
1.823618820337406E-002  1.846557121297609E-002  1.869783950564865E-002  1.893302937378501E-002
1.917117756628057E-002  1.941232129427492E-002  1.965649823696619E-002  1.990374654749843E-002
2.015410485892321E-002  2.040761229023604E-002  2.066430845248883E-002  2.092423345497918E-002
2.118742791151755E-002  2.145393294677326E-002  2.172379020270027E-002  2.199704184504384E-002
2.227373056992903E-002  2.255389961053203E-002  2.283759274383544E-002  2.312485429746852E-002
2.341572915663346E-002  2.371026277111879E-002  2.400850116240101E-002  2.431049093083554E-002
2.461627926293809E-002  2.492591393875767E-002  2.523944333934236E-002  2.555691645429887E-002
2.587838288944731E-002  2.620389287457220E-002  2.653349727127098E-002  2.686724758090122E-002
2.720519595262781E-002  2.754739519157140E-002  2.789389876705929E-002  2.824476082098011E-002
2.860003617624361E-002  2.895978034534688E-002  2.932404953904825E-002  2.969290067515033E-002
3.006639138739357E-002  3.044458003446165E-002  3.082752570910009E-002  3.121528824734967E-002
3.160792823789589E-002  3.200550703153611E-002  3.240808675076572E-002  3.281573029948490E-002
3.322850137282751E-002  3.364646446711351E-002  3.406968488992677E-002  3.449822877031940E-002
3.493216306914459E-002  3.537155558951936E-002  3.581647498741899E-002  3.626699078240458E-002
3.672317336848568E-002  3.718509402511950E-002  3.765282492834840E-002  3.812643916207762E-002
3.860601072949476E-002  3.909161456463291E-002  3.958332654407931E-002  4.008122349883112E-002
4.058538322630049E-002  4.109588450247059E-002  4.161280709420442E-002  4.213623177170865E-002
4.266624032115403E-002  4.320291555745472E-002  4.374634133720828E-002  4.429660257179840E-002
4.485378524066252E-002  4.541797640472621E-002  4.598926422000673E-002  4.656773795138752E-002
4.715348798656600E-002  4.774660585017691E-002  4.834718421809314E-002  4.895531693190654E-002
4.957109901359092E-002  5.019462668034937E-002  5.082599735964837E-002  5.146530970444112E-002
5.211266360858217E-002  5.276816022243611E-002  5.343190196868245E-002  5.410399255831946E-002
5.478453700686911E-002  5.547364165078611E-002  5.617141416407304E-002  5.687796357510473E-002
5.759340028366416E-002  5.831783607819258E-002  5.905138415325678E-002  5.979415912723591E-002
6.054627706023083E-002  6.130785547219877E-002  6.207901336131603E-002  6.285987122257174E-002
6.365055106659537E-002  6.445117643872122E-002  6.526187243829255E-002  6.608276573820868E-002
6.691398460471783E-002  6.775565891745902E-002  6.860792018975605E-002  6.947090158916659E-002
7.034473795829010E-002  7.122956583583707E-002  7.212552347796358E-002  7.303275087987404E-002
7.395138979769576E-002  7.488158377062863E-002  7.582347814337344E-002  7.677722008884220E-002
7.774295863115434E-002  7.872084466892186E-002  7.971103099882769E-002  8.071367233950044E-002
8.172892535568949E-002  8.275694868274418E-002  8.379790295140083E-002  8.485195081288180E-002
8.591925696430992E-002  8.699998817444282E-002  8.809431330973080E-002  8.920240336070272E-002
9.032443146868346E-002  9.146057295284762E-002  9.261100533761368E-002  9.377590838038227E-002
9.495546409962390E-002  9.614985680331946E-002  9.735927311775894E-002  9.858390201670207E-002
9.982393485090578E-002  1.010795653780234E-001  1.023509897928792E-001  1.036384067581249E-001
1.049420174352805E-001  1.062620255161666E-001  1.075986372547314E-001  1.089520614992783E-001
1.103225097250992E-001  1.117101960675175E-001  1.131153373553475E-001  1.145381531447743E-001
1.159788657536596E-001  1.174377002962797E-001  1.189148847185000E-001  1.204106498333918E-001
1.219252293572974E-001  1.234588599463490E-001  1.250117812334461E-001  1.265842358656994E-001
1.281764695423442E-001  1.297887310531322E-001  1.314212723172045E-001  1.330743484224550E-001
1.347482176653883E-001  1.364431415914792E-001  1.381593850360396E-001  1.398972161655993E-001
1.416569065198079E-001  1.434387310538635E-001  1.452429681814746E-001  1.470698998183632E-001
1.489198114263144E-001  1.507929920577807E-001  1.526897344010468E-001  1.546103348259626E-001
1.565550934302523E-001  1.585243140864042E-001  1.605183044891524E-001  1.625373762035540E-001
1.645818447136722E-001  1.666520294718714E-001  1.687482539487317E-001  1.708708456835924E-001
1.730201363357307E-001  1.751964617361836E-001  1.774001619402228E-001  1.796315812804887E-001
1.818910684207928E-001  1.841789764105980E-001  1.864956627401823E-001  1.888414893964982E-001
1.912168229197333E-001  1.936220344605832E-001  1.960574998382447E-001  1.985235995991379E-001
2.010207190763680E-001  2.035492484499336E-001  2.061095828076936E-001  2.087021222071006E-001
2.113272717377101E-001  2.139854415844774E-001  2.166770470918490E-001  2.194025088286615E-001
2.221622526538565E-001  2.249567097830211E-001  2.277863168557675E-001  2.306515160039574E-001
2.335527549207869E-001  2.364904869307398E-001  2.394651710604190E-001  2.424772721102723E-001
2.455272607272166E-001  2.486156134781785E-001  2.517428129245589E-001  2.549093476976334E-001
2.581157125749028E-001  2.613624085574026E-001  2.646499429479853E-001  2.679788294305883E-001
2.713495881504968E-001  2.747627457956189E-001  2.782188356787808E-001  2.817183978210580E-001
2.852619790361554E-001  2.888501330158471E-001  2.924834204164927E-001  2.961624089466406E-001
2.998876734557334E-001  3.036597960239300E-001  3.074793660530558E-001  3.113469803586992E-001
3.152632432634641E-001  3.192287666913967E-001  3.232441702636009E-001  3.273100813950541E-001
3.314271353926430E-001  3.355959755544307E-001  3.398172532701739E-001  3.440916281231043E-001
3.484197679929887E-001  3.528023491604876E-001  3.572400564128248E-001  3.617335831507869E-001
3.662836314970692E-001  3.708909124059827E-001  3.755561457745429E-001  3.802800605549555E-001
3.850633948685154E-001  3.899068961209413E-001  3.948113211191577E-001  3.997774361895488E-001
4.048060172976982E-001  4.098978501696344E-001  4.150537304146034E-001  4.202744636493831E-001
4.255608656241629E-001  4.309137623500069E-001  4.363339902279188E-001  4.418223961795323E-001
4.473798377794436E-001  4.530071833892091E-001  4.587053122930297E-001  4.644751148351390E-001
4.703174925589234E-001  4.762333583477886E-001  4.822236365677997E-001  4.882892632121164E-001
4.944311860472419E-001  5.006503647611156E-001  5.069477711130643E-001  5.133243890856425E-001
5.197812150383820E-001  5.263192578634742E-001  5.329395391434127E-001  5.396430933106162E-001
5.464309678090618E-001  5.533042232579500E-001  5.602639336174283E-001  5.673111863564004E-001
5.744470826224444E-001  5.816727374138694E-001  5.889892797539380E-001  5.963978528672759E-001
6.038996143585055E-001  6.114957363931218E-001  6.191874058806470E-001  6.269758246600879E-001
6.348622096877242E-001  6.428477932272609E-001  6.509338230423739E-001  6.591215625916723E-001
6.674122912261190E-001  6.758073043889307E-001  6.843079138179932E-001  6.929154477508255E-001
7.016312511321163E-001  7.104566858238764E-001  7.193931308182319E-001  7.284419824528937E-001
7.376046546293412E-001  7.468825790337430E-001  7.562772053606629E-001  7.657900015395785E-001
7.754224539642466E-001  7.851760677249552E-001  7.950523668436994E-001  8.050528945123098E-001
8.151792133335803E-001  8.254329055654295E-001  8.358155733681287E-001  8.463288390546474E-001
8.569743453441377E-001  8.677537556186160E-001  8.786687541828684E-001  8.897210465276266E-001
9.009123595960570E-001  9.122444420535948E-001  9.237190645611791E-001  9.353380200519222E-001
9.471031240112574E-001  9.590162147606166E-001  9.710791537446660E-001  9.832938258221636E-001
9.956621395604728E-001  1.008186027533778E+000  1.020867446625056E+000  1.033708378331841E+000
1.046710829075836E+000  1.059876830516424E+000  1.073208439868115E+000  1.086707740221996E+000
1.100376840871211E+000  1.114217877640546E+000  1.128233013220156E+000  1.142424437503489E+000
1.156794367929463E+000  1.171345049828943E+000  1.186078756775579E+000  1.200997790941057E+000
1.216104483454816E+000  1.231401194768301E+000  1.246890315023774E+000  1.262574264427787E+000
1.278455493629344E+000  1.294536484102818E+000  1.310819748535689E+000  1.327307831221152E+000
1.344003308455672E+000  1.360908788941534E+000  1.378026914194457E+000  1.395360358956343E+000
1.412911831613197E+000  1.430684074618333E+000  1.448679864920877E+000  1.466902014399676E+000
1.485353370302662E+000  1.504036815691732E+000  1.522955269893241E+000  1.542111688954147E+000
1.561509066103901E+000  1.581150432222151E+000  1.601038856312311E+000  1.621177445981108E+000
1.641569347924151E+000  1.662217748417605E+000  1.683125873816058E+000  1.704296991056642E+000
1.725734408169497E+000  1.747441474794663E+000  1.769421582705461E+000  1.791678166338474E+000
1.814214703330176E+000  1.837034715060321E+000  1.860141767202171E+000  1.883539470279632E+000
1.907231480231417E+000  1.931221498982280E+000  1.955513275021460E+000  1.980110603988385E+000
2.005017329265748E+000  2.030237342580050E+000  2.055774584609680E+000  2.081633045600661E+000
2.107816765990132E+000  2.134329837037674E+000  2.161176401464583E+000  2.188360654101169E+000
2.215886842542211E+000  2.243759267810658E+000  2.271982285029662E+000  2.300560304103088E+000
2.329497790404556E+000  2.358799265475175E+000  2.388469307730039E+000  2.418512553173612E+000
2.448933696124123E+000  2.479737489947047E+000  2.510928747797841E+000  2.542512343374002E+000
2.574493211676595E+000  2.606876349781361E+000  2.639666817619513E+000  2.672869738768361E+000
2.706490301251887E+000  2.740533758351379E+000  2.775005429426275E+000  2.809910700745311E+000
2.845255026328147E+000  2.881043928797562E+000  2.917283000242379E+000  2.953977903091245E+000
2.991134370997383E+000  3.028758209734500E+000  3.066855298103945E+000  3.105431588853281E+000
3.144493109606428E+000  3.184045963805472E+000  3.224096331664351E+000  3.264650471134530E+000
3.305714718882801E+000  3.347295491281431E+000  3.389399285410700E+000  3.432032680074099E+000
3.475202336826286E+000  3.518915001013952E+000  3.563177502829817E+000  3.607996758379842E+000
3.653379770763889E+000  3.699333631169977E+000  3.745865519982285E+000  3.792982707903117E+000
3.840692557088941E+000  3.889002522300760E+000  3.937920152068925E+000  3.987453089872609E+000
4.037609075334125E+000  4.088395945428242E+000  4.139821635706737E+000  4.191894181538346E+000
4.244621719364289E+000  4.298012487969638E+000  4.352074829770607E+000  4.406817192118091E+000
4.462248128617584E+000  4.518376300465683E+000  4.575210477803443E+000  4.632759541086697E+000
4.691032482473669E+000  4.750038407230006E+000  4.809786535151497E+000  4.870286202004698E+000
4.931546860985635E+000  4.993578084196911E+000  5.056389564143356E+000  5.119991115246499E+000
5.184392675378106E+000  5.249604307412971E+000  5.315636200801271E+000  5.382498673160693E+000
5.450202171888570E+000  5.518757275794331E+000  5.588174696752435E+000  5.658465281376135E+000
5.729640012712288E+000  5.801710011957465E+000  5.874686540195686E+000  5.948581000157956E+000
6.023404938003981E+000  6.099170045126284E+000  6.175888159976989E+000  6.253571269917639E+000
6.332231513092203E+000  6.411881180323712E+000  6.492532717034721E+000  6.574198725191921E+000
6.656891965275249E+000  6.740625358271703E+000  6.825411987694295E+000  6.911265101626375E+000
6.998198114791654E+000  7.086224610650322E+000  7.175358343521438E+000  7.265613240732110E+000
7.357003404793653E+000  7.449543115605127E+000  7.543246832684633E+000  7.638129197428603E+000
7.734205035399563E+000  7.831489358642668E+000  7.929997368031343E+000  8.029744455642486E+000
8.130746207161463E+000  8.233018404317443E+000  8.336577027349302E+000  8.441438257502574E+000
8.547618479557828E+000  8.655134284390780E+000  8.764002471564675E+000  8.874240051955251E+000
8.985864250408721E+000  9.098892508433208E+000  9.213342486923978E+000  9.329232068923021E+000
9.446579362413303E+000  9.565402703148168E+000  9.685720657516372E+000  9.807552025443064E+000
9.930915843327353E+000  1.005583138701676E+001  1.018231817481914E+001  1.031039597055242E+001
1.044008478663277E+001  1.057140488720155E+001  1.070437679129164E+001  1.083902127603358E+001
1.097535937990208E+001  1.111341240600323E+001  1.125320192540323E+001  1.139474978049889E+001
1.153807808843054E+001  1.168320924453792E+001  1.183016592585943E+001  1.197897109467552E+001
1.212964800209656E+001  1.228222019169587E+001  1.243671150318853E+001  1.259314607615623E+001
1.275154835381930E+001  1.291194308685587E+001  1.307435533726931E+001  1.323881048230419E+001
1.340533421841149E+001  1.357395256526379E+001  1.374469186982084E+001  1.391757881044632E+001
1.409264040107648E+001  1.426990399544101E+001  1.444939729133717E+001  1.463114833495763E+001
1.481518552527272E+001  1.500153761846788E+001  1.519023373243678E+001  1.538130335133115E+001
1.557477633016766E+001  1.577068289949289E+001  1.596905367010687E+001  1.616991963784610E+001
1.637331218842671E+001  1.657926310234851E+001  1.678780455986082E+001  1.699896914599067E+001
1.721278985563426E+001  1.742930009871248E+001  1.764853370539131E+001  1.787052493136782E+001
1.809530846322273E+001  1.832291942384021E+001  1.855339337789594E+001  1.878676633741413E+001
1.902307476739450E+001  1.926235559151004E+001  1.950464619787632E+001  1.974998444489353E+001
1.999840866716191E+001  2.024995768147161E+001  2.050467079286789E+001  2.076258780079264E+001
2.102374900530308E+001  2.128819521336875E+001  2.155596774524767E+001  2.182710844094273E+001
2.210165966673931E+001  2.237966432182499E+001  2.266116584499273E+001  2.294620822142825E+001
2.323483598958278E+001  2.352709424813234E+001  2.382302866302441E+001  2.412268547461341E+001
2.442611150488581E+001  2.473335416477613E+001  2.504446146157511E+001  2.535948200643083E+001
2.567846502194431E+001  2.600146034986072E+001  2.632851845885715E+001  2.665969045242858E+001
2.699502807687278E+001  2.733458372937579E+001  2.767841046619916E+001  2.802656201097001E+001
2.837909276307559E+001  2.873605780616311E+001  2.909751291674680E+001  2.946351457292310E+001