<UPF version="2.0.1">
<PP_INFO>
Generated in analytical, separable form
Author: Goedecker/Hartwigsen/Hutter/Teter
Generation date: Phys.Rev.B58, 3641 (1998); B54, 1703 (1996)
Pseudopotential type: NC
Element: Tc
Functional: SLA-PW-PBX-PBC

Suggested minimum cutoff for wavefunctions:   0. Ry
Suggested minimum cutoff for charge density:   0. Ry
The Pseudo was generated with a Non-Relativistic Calculation
Local Potential: unknown format, L component and cutoff radius: -3   0.0000

Valence configuration:
nl pn  l   occ       Rcut    Rcut US       E pseu

Generation configuration: not available.
Converted from CPMD format using cpmd2upf v.5.0.1 - PG 10Jul2012
Atomic orbitals could not be generated by ld1.x - use with care
</PP_INFO>
<!--                               -->
<!-- END OF HUMAN READABLE SECTION -->
<!--                               -->
<PP_HEADER generated="Generated in analytical, separable form" author="Goedecker/Hartwigsen/Hutter/Teter" date="Phys.Rev.B58, 3641 (1998); B54, 1703 (1996)" comment="Atomic orbitals could not be generated by ld1.x - use with care" element="Tc" pseudo_type="NC" relativistic="no" is_ultrasoft="F" is_paw="F" is_coulomb="F" has_so="F" has_wfc="F" has_gipaw="F" paw_as_gipaw="F" core_correction="F" functional="SLA-PW-PBX-PBC" z_valence="1.500000000000000E+001" total_psenergy="0.000000000000000E+000" wfc_cutoff="0.000000000000000E+000" rho_cutoff="0.000000000000000E+000" l_max="2" l_max_rho="0" l_local="-3" mesh_size="1231" number_of_wfc="0" number_of_proj="6"/>
<PP_MESH dx="1.250000000000000E-002" mesh="1231" xmin="-7.000000000000000E+000" rmax="1.008667041507737E+002" zmesh="4.300000000000000E+001">
<PP_R type="real" size="1231" columns="4">
2.120655733847712E-005  2.147330299230284E-005  2.174340389340889E-005  2.201690224561056E-005
2.229384078358186E-005  2.257426277953276E-005  2.285821204997066E-005  2.314573296254678E-005
2.343687044298862E-005  2.373166998211987E-005  2.403017764296830E-005  2.433244006796322E-005
2.463850448622349E-005  2.494841872093714E-005  2.526223119683390E-005  2.557999094775159E-005
2.590174762429775E-005  2.622755150160773E-005  2.655745348720017E-005  2.689150512893158E-005
2.722975862305057E-005  2.757226682235379E-005  2.791908324444421E-005  2.827026208009336E-005
2.862585820170886E-005  2.898592717190813E-005  2.935052525220034E-005  2.971970941177731E-005
3.009353733641507E-005  3.047206743748744E-005  3.085535886109283E-005  3.124347149729597E-005
3.163646598948590E-005  3.203440374385156E-005  3.243734693897671E-005  3.284535853555539E-005
3.325850228622964E-005  3.367684274555106E-005  3.410044528006751E-005  3.452937607853690E-005
3.496370216226913E-005  3.540349139559841E-005  3.584881249648722E-005  3.629973504726354E-005
3.675632950549342E-005  3.721866721498987E-005  3.768682041696062E-005  3.816086226129595E-005
3.864086681799847E-005  3.912690908875677E-005  3.961906501866451E-005  4.011741150808703E-005
4.062202642467720E-005  4.113298861554234E-005  4.165037791956441E-005  4.217427517987477E-005
4.270476225648621E-005  4.324192203908374E-005  4.378583845997621E-005  4.433659650721108E-005
4.489428223785371E-005  4.545898279143412E-005  4.603078640356272E-005  4.660978241971718E-005
4.719606130920312E-005  4.778971467928974E-005  4.839083528952394E-005  4.899951706622405E-005
4.961585511715600E-005  5.023994574639429E-005  5.087188646936942E-005  5.151177602810505E-005
5.215971440664659E-005  5.281580284668388E-005  5.348014386337061E-005  5.415284126134218E-005
5.483400015093565E-005  5.552372696461333E-005  5.622212947359311E-005  5.692931680468798E-005
5.764539945735717E-005  5.837048932097206E-005  5.910469969229903E-005  5.984814529320232E-005
6.060094228856972E-005  6.136320830446329E-005  6.213506244649885E-005  6.291662531845643E-005
6.370801904112484E-005  6.450936727138346E-005  6.532079522152355E-005  6.614242967881320E-005
6.697439902530798E-005  6.781683325791087E-005  6.866986400868480E-005  6.953362456542001E-005
7.040824989246082E-005  7.129387665179403E-005  7.219064322440253E-005  7.309868973188792E-005
7.401815805836435E-005  7.494919187262852E-005  7.589193665060810E-005  7.684653969809260E-005
7.781315017375052E-005  7.879191911243515E-005  7.978299944878452E-005  8.078654604111752E-005
8.180271569563089E-005  8.283166719090069E-005  8.387356130269141E-005  8.492856082907776E-005
8.599683061588214E-005  8.707853758243210E-005  8.817385074764204E-005  8.928294125642240E-005
9.040598240642163E-005  9.154314967510426E-005  9.269462074716954E-005  9.386057554231532E-005
9.504119624335039E-005  9.623666732466131E-005  9.744717558103673E-005  9.867291015685443E-005
9.991406257563581E-005  1.011708267699714E-004  1.024433991118234E-004  1.037319784432093E-004
1.050367661072713E-004  1.063579659797366E-004  1.076957845007732E-004  1.090504307072468E-004
1.104221162653832E-004  1.118110555038416E-004  1.132174654472038E-004  1.146415658498849E-004
1.160835792304702E-004  1.175437309064841E-004  1.190222490295966E-004  1.205193646212727E-004
1.220353116088694E-004  1.235703268621878E-004  1.251246502304842E-004  1.266985245799472E-004
1.282921958316459E-004  1.299059129999558E-004  1.315399282314676E-004  1.331944968443857E-004
1.348698773684220E-004  1.365663315851919E-004  1.382841245691185E-004  1.400235247288502E-004
1.417848038492009E-004  1.435682371336165E-004  1.453741032471758E-004  1.472026843601336E-004
1.490542661920089E-004  1.509291380562299E-004  1.528275929053400E-004  1.547499273767715E-004
1.566964418391969E-004  1.586674404394611E-004  1.606632311501054E-004  1.626841258174888E-004
1.647304402105144E-004  1.668024940699697E-004  1.689006111584858E-004  1.710251193111264E-004
1.731763504866126E-004  1.753546408191923E-004  1.775603306711619E-004  1.797937646860482E-004
1.820552918424598E-004  1.843452655086164E-004  1.866640434975617E-004  1.890119881230747E-004
1.913894662562798E-004  1.937968493829723E-004  1.962345136616637E-004  1.987028399823567E-004
2.012022140260613E-004  2.037330263250565E-004  2.062956723239130E-004  2.088905524412820E-004
2.115180721324608E-004  2.141786419527475E-004  2.168726776215890E-004  2.196006000875398E-004
2.223628355940352E-004  2.251598157459926E-004  2.279919775772518E-004  2.308597636188608E-004
2.337636219682229E-004  2.367040063591134E-004  2.396813762325754E-004  2.426961968087094E-004
2.457489391593641E-004  2.488400802817425E-004  2.519701031729340E-004  2.551394969053832E-004
2.583487567033094E-004  2.615983840200852E-004  2.648888866165902E-004  2.682207786405496E-004
2.715945807068708E-004  2.750108199789911E-004  2.784700302512470E-004  2.819727520322814E-004
2.855195326294988E-004  2.891109262345833E-004  2.927474940100930E-004  2.964298041771411E-004
3.001584321041831E-004  3.039339603969184E-004  3.077569789893239E-004  3.116280852358332E-004
3.155478840046729E-004  3.195169877723754E-004  3.235360167194798E-004  3.276055988274354E-004
3.317263699767269E-004  3.358989740462297E-004  3.401240630138191E-004  3.444022970582422E-004
3.487343446622722E-004  3.531208827171615E-004  3.575625966284054E-004  3.620601804228393E-004
3.666143368570814E-004  3.712257775273398E-004  3.758952229806017E-004  3.806234028272192E-004
3.854110558549129E-004  3.902589301442087E-004  3.951677831853271E-004  4.001383819965438E-004
4.051715032440352E-004  4.102679333632363E-004  4.154284686817221E-004  4.206539155436348E-004
4.259450904356786E-004  4.313028201146950E-004  4.367279417368467E-004  4.422213029884246E-004
4.477837622183007E-004  4.534161885720464E-004  4.591194621277391E-004  4.648944740334751E-004
4.707421266466137E-004  4.766633336747735E-004  4.826590203185987E-004  4.887301234163262E-004
4.948775915901668E-004  5.011023853945296E-004  5.074054774661110E-004  5.137878526758708E-004
5.202505082829209E-004  5.267944540903481E-004  5.334207126029984E-004  5.401303191872460E-004
5.469243222327699E-004  5.538037833163693E-004  5.607697773678343E-004  5.678233928379078E-004
5.749657318683581E-004  5.821979104641895E-004  5.895210586680220E-004  5.969363207366612E-004
6.044448553198918E-004  6.120478356415189E-004  6.197464496826857E-004  6.275419003674996E-004
6.354354057509899E-004  6.434281992094321E-004  6.515215296330657E-004  6.597166616212349E-004
6.680148756799868E-004  6.764174684221506E-004  6.849257527699370E-004  6.935410581600863E-004
7.022647307515930E-004  7.110981336360487E-004  7.200426470506254E-004  7.290996685937415E-004
7.382706134434408E-004  7.475569145785132E-004  7.569600230024054E-004  7.664814079699387E-004
7.761225572168856E-004  7.858849771924316E-004  7.957701932945589E-004  8.057797501083959E-004
8.159152116475590E-004  8.261781615985340E-004  8.365702035681318E-004  8.470929613340520E-004
8.577480790986050E-004  8.685372217456191E-004  8.794620751005833E-004  8.905243461940619E-004
9.017257635284188E-004  9.130680773479027E-004  9.245530599121237E-004  9.361825057729732E-004
9.479582320550285E-004  9.598820787394778E-004  9.719559089516259E-004  9.841816092520073E-004
9.965610899311671E-004  1.009096285308148E-003  1.021789154032731E-003  1.034641679391477E-003
1.047655869617624E-003  1.060833758204870E-003  1.074177404225119E-003  1.087688892650209E-003
1.101370334677696E-003  1.115223868060732E-003  1.129251657442092E-003  1.143455894692409E-003
1.157838799252650E-003  1.172402618480916E-003  1.187149628003591E-003  1.202082132070916E-003
1.217202463917033E-003  1.232512986124554E-003  1.248016090993724E-003  1.263714200916221E-003
1.279609768753657E-003  1.295705278220847E-003  1.312003244273892E-003  1.328506213503146E-003
1.345216764531128E-003  1.362137508415431E-003  1.379271089056715E-003  1.396620183611813E-003
1.414187502912046E-003  1.431975791886796E-003  1.449987829992405E-003  1.468226431646474E-003
1.486694446667618E-003  1.505394760720757E-003  1.524330295768008E-003  1.543504010525246E-003
1.562918900924414E-003  1.582578000581633E-003  1.602484381271223E-003  1.622641153405667E-003
1.643051466521619E-003  1.663718509772029E-003  1.684645512424453E-003  1.705835744365631E-003
1.727292516612416E-003  1.749019181829126E-003  1.771019134851404E-003  1.793295813216668E-003
1.815852697701237E-003  1.838693312864202E-003  1.861821227598152E-003  1.885240055686820E-003
1.908953456369740E-003  1.932965134914013E-003  1.957278843193265E-003  1.981898380273880E-003
2.006827593008617E-003  2.032070376637685E-003  2.057630675397379E-003  2.083512483136389E-003
2.109719843939826E-003  2.136256852761138E-003  2.163127656061943E-003  2.190336452459923E-003
2.217887493384876E-003  2.245785083742996E-003  2.274033582589537E-003  2.302637403809915E-003
2.331601016809389E-003  2.360928947211420E-003  2.390625777564800E-003  2.420696148059690E-003
2.451144757252660E-003  2.481976362800842E-003  2.513195782205333E-003  2.544807893563929E-003
2.576817636333347E-003  2.609230012101018E-003  2.642050085366599E-003  2.675282984333312E-003
2.708933901709232E-003  2.743008095518663E-003  2.777510889923713E-003  2.812447676056202E-003
2.847823912860045E-003  2.883645127944214E-003  2.919916918446448E-003  2.956644951907806E-003
2.993834967158238E-003  3.031492775213295E-003  3.069624260182098E-003  3.108235380186755E-003
3.147332168293319E-003  3.186920733454476E-003  3.227007261464077E-003  3.267598015923678E-003
3.308699339221247E-003  3.350317653522170E-003  3.392459461772731E-003  3.435131348716206E-003
3.478339981921746E-003  3.522092112826200E-003  3.566394577789035E-003  3.611254299160535E-003
3.656678286363434E-003  3.702673636988146E-003  3.749247537901786E-003  3.796407266371126E-003
3.844160191199687E-003  3.892513773879129E-003  3.941475569755120E-003  3.991053229207878E-003
4.041254498847562E-003  4.092087222724688E-003  4.143559343555779E-003  4.195678903964438E-003
4.248454047738016E-003  4.301893021100101E-003  4.356004173999003E-003  4.410795961412449E-003
4.466276944668702E-003  4.522455792784270E-003  4.579341283818467E-003  4.636942306245006E-003
4.695267860340825E-003  4.754327059592420E-003  4.814129132119829E-003  4.874683422118555E-003
4.935999391319609E-003  4.998086620467922E-003  5.060954810819371E-003  5.124613785656602E-003
5.189073491823950E-003  5.254344001281649E-003  5.320435512679593E-003  5.387358352950904E-003
5.455122978925528E-003  5.523739978964144E-003  5.593220074612610E-003  5.663574122277228E-003
5.734813114921082E-003  5.806948183781712E-003  5.879990600110384E-003  5.953951776933259E-003
6.028843270834689E-003  6.104676783762962E-003  6.181464164858760E-003  6.259217412306603E-003
6.337948675209598E-003  6.417670255487749E-003  6.498394609800172E-003  6.580134351491463E-003
6.662902252562561E-003  6.746711245666405E-003  6.831574426128673E-003  6.917505053993969E-003
7.004516556097726E-003  7.092622528164171E-003  7.181836736930697E-003  7.272173122298928E-003
7.363645799512868E-003  7.456269061364435E-003  7.550057380426739E-003  7.645025411315448E-003
7.741187992978597E-003  7.838560151015217E-003  7.937157100023112E-003  8.036994245976153E-003
8.138087188631522E-003  8.240451723967182E-003  8.344103846650040E-003  8.449059752535149E-003
8.555335841196336E-003  8.662948718488677E-003  8.771915199143188E-003  8.882252309394163E-003
8.993977289639566E-003  9.107107597134862E-003  9.221660908720768E-003  9.337655123585274E-003
9.455108366060448E-003  9.574038988454386E-003  9.694465573918804E-003  9.816406939352689E-003
9.939882138342484E-003  1.006491046413924E-002  1.019151145267324E-002  1.031970488560651E-002
1.044951079342376E-002  1.058094945856218E-002  1.071404141858060E-002  1.084880746936857E-002
1.098526866839569E-002  1.112344633800196E-002  1.126336206872936E-002  1.140503772269550E-002
1.154849543700953E-002  1.169375762723119E-002  1.184084699087324E-002  1.198978651094801E-002
1.214059945955851E-002  1.229330940153483E-002  1.244794019811606E-002  1.260451601067878E-002
1.276306130451225E-002  1.292360085264120E-002  1.308615973969665E-002  1.325076336583542E-002
1.341743745070900E-002  1.358620803748223E-002  1.375710149690268E-002  1.393014453142106E-002
1.410536417936357E-002  1.428278781915670E-002  1.446244317360512E-002  1.464435831422349E-002
1.482856166562264E-002  1.501508200995098E-002  1.520394849139180E-002  1.539519062071707E-002
1.558883827989859E-002  1.578492172677708E-002  1.598347159979006E-002  1.618451892275912E-002
1.638809510973753E-002  1.659423196991867E-002  1.680296171260634E-002  1.701431695224749E-002
1.722833071352833E-002  1.744503643653447E-002  1.766446798197602E-002  1.788665963647839E-002
1.811164611793966E-002  1.833946258095528E-002  1.857014462231110E-002  1.880372828654541E-002
1.904025007158098E-002  1.927974693442792E-002  1.952225629695832E-002  1.976781605175345E-002
2.001646456802461E-002  2.026824069760833E-002  2.052318378103711E-002  2.078133365368642E-002
2.104273065199907E-002  2.130741561978786E-002  2.157542991461752E-002  2.184681541426689E-002
2.212161452327243E-002  2.239987017955400E-002  2.268162586112402E-002  2.296692559288097E-002
2.325581395348838E-002  2.354833608234035E-002  2.384453768661464E-002  2.414446504841455E-002
2.444816503200057E-002  2.475568509111302E-002  2.506707327638679E-002  2.538237824285935E-002
2.570164925757321E-002  2.602493620727397E-002  2.635228960620527E-002  2.668376060400169E-002
2.701940099368101E-002  2.735926321973700E-002  2.770340038633392E-002  2.805186626560421E-002
2.840471530605047E-002  2.876200264105314E-002  2.912378409748523E-002  2.949011620443535E-002
2.986105620204051E-002  3.023666205043004E-002  3.061699243878191E-002  3.100210679449310E-002
3.139206529246520E-002  3.178692886450691E-002  3.218675920885469E-002  3.259161879981334E-002
3.300157089751762E-002  3.341667955781686E-002  3.383700964228376E-002  3.426262682834921E-002
3.469359761956444E-002  3.512998935599240E-002  3.557187022472975E-002  3.601930927056125E-002
3.647237640674812E-002  3.693114242595218E-002  3.739567901129729E-002  3.786605874757001E-002
3.834235513256114E-002  3.882464258854985E-002  3.931299647393238E-002  3.980749309499686E-002
4.030820971784642E-002  4.081522458047208E-002  4.132861690497765E-002  4.184846690995836E-002
4.237485582303511E-002  4.290786589354652E-002  4.344758040540054E-002  4.399408369008768E-002
4.454746113985807E-002  4.510779922106407E-002  4.567518548767088E-002  4.624970859493704E-002
4.683145831326692E-002  4.742052554223759E-002  4.801700232480203E-002  4.862098186167108E-002
4.923255852587618E-002  4.985182787751535E-002  5.047888667868473E-002  5.111383290859774E-002
5.175676577889463E-002  5.240778574914440E-002  5.306699454254196E-002  5.373449516180245E-002
5.441039190525563E-002  5.509479038314281E-002  5.578779753411858E-002  5.648952164196022E-002
5.720007235248722E-002  5.791956069069376E-002  5.864809907809650E-002  5.938580135030065E-002
6.013278277478715E-002  6.088916006892331E-002  6.165505141820019E-002  6.243057649469933E-002
6.321585647579178E-002  6.401101406307222E-002  6.481617350153143E-002  6.563146059896981E-002
6.645700274565501E-002  6.729292893422702E-002  6.813936977985355E-002  6.899645754063881E-002
6.986432613828918E-002  7.074311117903873E-002  7.163294997483798E-002  7.253398156480916E-002
7.344634673697137E-002  7.437018805023900E-002  7.530564985669680E-002  7.625287832415524E-002
7.721202145898952E-002  7.818322912926583E-002  7.916665308815862E-002  8.016244699766224E-002
8.117076645260099E-002  8.219176900494118E-002  8.322561418840885E-002  8.427246354341730E-002
8.533248064230806E-002  8.640583111490943E-002  8.749268267441655E-002  8.859320514359680E-002
8.970757048132504E-002  9.083595280945242E-002  9.197852844001346E-002  9.313547590277503E-002
9.430697597313201E-002  9.549321170035382E-002  9.669436843618627E-002  9.791063386381309E-002
9.914219802718184E-002  1.003892533606987E-001  1.016519947192967E-001  1.029306194088822E-001
1.042253272171643E-001  1.055363204448722E-001  1.068638039373649E-001  1.082079851166389E-001
1.095690740137382E-001  1.109472833015722E-001  1.123428283281461E-001  1.137559271502095E-001
1.151868005673283E-001  1.166356721563852E-001  1.181027683065136E-001  1.195883182544718E-001
1.210925541204617E-001  1.226157109443975E-001  1.241580267226321E-001  1.257197424451435E-001
1.273011021331907E-001  1.289023528774424E-001  1.305237448765851E-001  1.321655314764174E-001
1.338279692094357E-001  1.355113178349180E-001  1.372158403795121E-001  1.389418031783332E-001
1.406894759165802E-001  1.424591316716741E-001  1.442510469559272E-001  1.460655017597481E-001
1.479027795953915E-001  1.497631675412573E-001  1.516469562867469E-001  1.535544401776844E-001
1.554859172623087E-001  1.574416893378437E-001  1.594220619976554E-001  1.614273446790009E-001
1.634578507113790E-001  1.655138973654884E-001  1.675958059028017E-001  1.697039016257636E-001
1.718385139286198E-001  1.739999763488856E-001  1.761886266194616E-001  1.784048067214054E-001
1.806488629373669E-001  1.829211459056952E-001  1.852220106752274E-001  1.875518167607645E-001
1.899109281992478E-001  1.922997136066389E-001  1.947185462355179E-001  1.971678040334041E-001
1.996478697018116E-001  2.021591307560467E-001  2.047019795857584E-001  2.072768135162498E-001
2.098840348705611E-001  2.125240510323332E-001  2.151972745094627E-001  2.179041229985566E-001
2.206450194501984E-001  2.234203921350351E-001  2.262306747106951E-001  2.290763062895486E-001
2.319577315073192E-001  2.348754005925595E-001  2.378297694370001E-001  2.408212996667836E-001
2.438504587145949E-001  2.469177198926979E-001  2.500235624668921E-001  2.531684717313987E-001
2.563529390846885E-001  2.595774621062645E-001  2.628425446344090E-001  2.661486968449099E-001
2.694964353307767E-001  2.728862831829584E-001  2.763187700720792E-001  2.797944323311986E-001
2.833138130396158E-001  2.868774621077270E-001  2.904859363629491E-001  2.941397996367263E-001
2.978396228526289E-001  3.015859841155614E-001  3.053794688020936E-001  3.092206696519253E-001
3.131101868605046E-001  3.170486281728085E-001  3.210366089783047E-001  3.250747524071079E-001
3.291636894273444E-001  3.333040589437427E-001  3.374965078974634E-001  3.417416913671849E-001
3.460402726714615E-001  3.503929234723673E-001  3.548003238804457E-001  3.592631625609773E-001
3.637821368415856E-001  3.683579528211959E-001  3.729913254803646E-001  3.776829787929964E-001
3.824336458394665E-001  3.872440689211663E-001  3.921149996764893E-001  3.970471991982759E-001
4.020414381527360E-001  4.070984968998672E-001  4.122191656153872E-001  4.174042444142012E-001
4.226545434754202E-001  4.279708831689548E-001  4.333540941836981E-001  4.388050176573230E-001
4.443245053077129E-001  4.499134195660422E-001  4.555726337115349E-001  4.613030320079147E-001
4.671055098415738E-001  4.729809738614795E-001  4.789303421208380E-001  4.849545442205446E-001
4.910545214544332E-001  4.972312269563571E-001  5.034856258491178E-001  5.098186953952668E-001
5.162314251498057E-001  5.227248171148052E-001  5.292998858959707E-001  5.359576588611765E-001
5.426991763009935E-001  5.495254915912379E-001  5.564376713575616E-001  5.634367956421160E-001
5.705239580723108E-001  5.777002660316941E-001  5.849668408329854E-001  5.923248178932813E-001
5.997753469114668E-001  6.073195920478600E-001  6.149587321061116E-001  6.226939607173985E-001
6.305264865269281E-001  6.384575333827933E-001  6.464883405272018E-001  6.546201627901083E-001
6.628542707852859E-001  6.711919511088613E-001  6.796345065403477E-001  6.881832562462086E-001
6.968395359859774E-001  7.056046983209753E-001  7.144801128256496E-001  7.234671663015738E-001
7.325672629941384E-001  7.417818248119654E-001  7.511122915490859E-001  7.605601211099110E-001
7.701267897370309E-001  7.798137922418825E-001  7.896226422383155E-001  7.995548723790976E-001
8.096120345953964E-001  8.197957003392689E-001  8.301074608292068E-001  8.405489272987663E-001
8.511217312483258E-001  8.618275247000138E-001  8.726679804558376E-001  8.836447923590647E-001
8.947596755588872E-001  9.060143667784183E-001  9.174106245860594E-001  9.289502296702780E-001
9.406349851178468E-001  9.524667166955773E-001  9.644472731355993E-001  9.765785264242328E-001
9.888623720944838E-001  1.001300729522231E+000  1.013895542226129E+000  1.026648778171285E+000
1.039562430076764E+000  1.052638515726948E+000  1.065879078286825E+000  1.079286186621232E+000
1.092861935618124E+000  1.106608446515900E+000  1.120527867234857E+000  1.134622372712801E+000
1.148894165244889E+000  1.163345474827739E+000  1.177978559507876E+000  1.192795705734552E+000
1.207799228717011E+000  1.222991472786244E+000  1.238374811761294E+000  1.253951649320176E+000
1.269724419375448E+000  1.285695586454522E+000  1.301867646084748E+000  1.318243125183345E+000
1.334824582452238E+000  1.351614608777861E+000  1.368615827635986E+000  1.385830895501651E+000
1.403262502264233E+000  1.420913371647753E+000  1.438786261636464E+000  1.456883964905787E+000
1.475209309258682E+000  1.493765158067486E+000  1.512554410721326E+000  1.531580003079157E+000
1.550844907928493E+000  1.570352135449910E+000  1.590104733687399E+000  1.610105789024620E+000
1.630358426667161E+000  1.650865811130859E+000  1.671631146736257E+000  1.692657678109295E+000
1.713948690688275E+000  1.735507511237232E+000  1.757337508365737E+000  1.779442093055253E+000
1.801824719192114E+000  1.824488884107190E+000  1.847438129122358E+000  1.870676040103844E+000
1.894206248022515E+000  1.918032429521233E+000  1.942158307489332E+000  1.966587651644327E+000
1.991324279120946E+000  2.016372055067556E+000  2.041734893250113E+000  2.067416756663682E+000
2.093421658151672E+000  2.119753661032847E+000  2.146416879736230E+000  2.173415480443992E+000
2.200753681742422E+000  2.228435755281092E+000  2.256466026440313E+000  2.284848875006978E+000
2.313588735858927E+000  2.342690099657887E+000  2.372157513551158E+000  2.401995581882113E+000
2.432208966909633E+000  2.462802389536603E+000  2.493780630047548E+000  2.525148528855574E+000
2.556910987258689E+000  2.589072968205636E+000  2.621639497071377E+000  2.654615662442303E+000
2.688006616911343E+000  2.721817577883068E+000  2.756053828388915E+000  2.790720717912685E+000
2.825823663226394E+000  2.861368149236666E+000  2.897359729841755E+000  2.933804028799353E+000
2.970706740605324E+000  3.008073631383465E+000  3.045910539786482E+000  3.084223377908295E+000
3.123018132207803E+000  3.162300864444302E+000  3.202077712624622E+000  3.242354891962216E+000
3.283138695848302E+000  3.324435496835210E+000  3.366251747632116E+000  3.408593982113283E+000
3.451468816338994E+000  3.494882949589325E+000  3.538843165410921E+000  3.583356332676948E+000
3.628429406660351E+000  3.674069430120642E+000  3.720283534404341E+000  3.767078940559264E+000
3.814462960462834E+000  3.862442997964561E+000  3.911026550042921E+000  3.960221207976771E+000
4.010034658531496E+000  4.060474685160100E+000  4.111549169219360E+000  4.163266091201322E+000
4.215633531980265E+000  4.268659674075349E+000  4.322352802929166E+000  4.376721308202337E+000
4.431773685084423E+000  4.487518535621316E+000  4.543964570059324E+000  4.601120608206176E+000
4.658995580809113E+000  4.717598530950350E+000  4.776938615460078E+000  4.837025106347224E+000
4.897867392248245E+000  4.959474979894094E+000  5.021857495595682E+000  5.085024686748004E+000
5.148986423353190E+000  5.213752699562723E+000  5.279333635239026E+000  5.345739477536722E+000
5.412980602503774E+000  5.481067516702758E+000  5.550010858852550E+000  5.619821401490623E+000
5.690510052656293E+000  5.762087857595124E+000  5.834566000484758E+000  5.907955806182489E+000
5.982268741994766E+000  6.057516419469001E+000  6.133710596207890E+000  6.210863177706561E+000
6.288986219212855E+000  6.368091927610943E+000  6.448192663328703E+000  6.529300942269059E+000
6.611429437765603E+000  6.694590982562862E+000  6.778798570821399E+000  6.864065360148198E+000
6.950404673652572E+000  7.037830002027904E+000  7.126355005659635E+000  7.215993516759684E+000
7.306759541527779E+000  7.398667262339955E+000  7.491731039964571E+000  7.585965415806234E+000
7.681385114177882E+000  7.778005044601519E+000  7.875840304137850E+000  7.974906179745219E+000
8.075218150668251E+000  8.176791890856483E+000  8.279643271413475E+000  8.383788363076691E+000
8.489243438728579E+000  8.596024975939276E+000  8.704149659541214E+000  8.813634384236183E+000
8.924496257235168E+000  9.036752600931367E+000  9.150420955606887E+000  9.265519082173395E+000
9.382064964947338E+000  9.500076814460012E+000  9.619573070302994E+000  9.740572404009395E+000
9.863093721971270E+000  9.987156168393822E+000  1.011277912828671E+001  1.023998223049300E+001
1.036878535075621E+001  1.049920861482594E+001  1.063127240160254E+001  1.076499734632139E+001
1.090040434377714E+001  1.103751455158866E+001  1.117634939350487E+001  1.131693056275227E+001
1.145928002542458E+001  1.160342002391493E+001  1.174937308039137E+001  1.189716200031591E+001
1.204680987600796E+001  1.219834009025257E+001  1.235177631995398E+001  1.250714253983528E+001
1.266446302618441E+001  1.282376236064742E+001  1.298506543406944E+001  1.314839745038384E+001
1.331378393055050E+001  1.348125071654341E+001  1.365082397538859E+001  1.382253020325275E+001
1.399639622958331E+001  1.417244922130064E+001  1.435071668704288E+001  1.453122648146422E+001
1.471400680958731E+001  1.489908623121025E+001  1.508649366536927E+001  1.527625839485721E+001
1.546841007079913E+001  1.566297871728534E+001  1.585999473606269E+001  1.605948891128497E+001
1.626149241432293E+001  1.646603680863489E+001  1.667315405469860E+001  1.688287651500515E+001
1.709523695911566E+001  1.731026856878156E+001  1.752800494312935E+001  1.774848010391050E+001
1.797172850081744E+001  1.819778501686642E+001  1.842668497384796E+001  1.865846413784604E+001
1.889315872482661E+001  1.913080540629634E+001  1.937144131503274E+001  1.961510405088613E+001
1.986183168665471E+001  2.011166277403353E+001  2.036463634963828E+001  2.062079194110485E+001
2.088016957326554E+001  2.114280977440309E+001  2.140875358258328E+001  2.167804255206717E+001
2.195071875980416E+001  2.222682481200646E+001  2.250640385080645E+001  2.278949956099777E+001
2.307615617686108E+001  2.336641848907584E+001  2.366033185171887E+001  2.395794218935104E+001
2.425929600419312E+001  2.456444038339175E+001  2.487342300637705E+001  2.518629215231247E+001
2.550309670763860E+001  2.582388617371175E+001  2.614871067453862E+001  2.647762096460837E+001
2.681066843682299E+001  2.714790513052759E+001  2.748938373964167E+001  2.783515762089264E+001
2.818528080215296E+001  2.853980799088202E+001  2.889879458267434E+001  2.926229666991527E+001
2.963037105054544E+001  3.000307523693575E+001  3.038046746487355E+001  3.076260670266229E+001
3.114955266033533E+001  3.154136579898578E+001  3.193810734021374E+001  3.233983927569221E+001
3.274662437685341E+001  3.315852620469703E+001  3.357560911972164E+001  3.399793829198135E+001
3.442557971126852E+001  3.485860019742496E+001  3.529706741078262E+001  3.574104986273564E+001
3.619061692644546E+001  3.664583884768042E+001  3.710678675579187E+001  3.757353267482826E+001
3.804614953478900E+001  3.852471118302008E+001  3.900929239575264E+001  3.949996888978706E+001
3.999681733432382E+001  4.049991536294323E+001  4.100934158573578E+001  4.152517560158527E+001
4.204749801060616E+001  4.257639042673750E+001  4.311193549049535E+001  4.365421688188547E+001
4.420331933347862E+001  4.475932864364997E+001  4.532233168998546E+001  4.589241644285651E+001
4.646967197916556E+001  4.705418849626468E+001  4.764605732604883E+001  4.824537094922682E+001
4.885222300977161E+001  4.946670832955225E+001  5.008892292315023E+001  5.071896401286165E+001
5.135693004388862E+001  5.200292069972144E+001  5.265703691771430E+001  5.331938090485717E+001
5.399005615374556E+001  5.466916745875157E+001  5.535682093239832E+001  5.605312402194003E+001
5.675818552615118E+001  5.747211561232622E+001  5.819502583349361E+001  5.892702914584619E+001