<UPF version="2.0.1">
<PP_INFO>
Generated in analytical, separable form
Author: Goedecker/Hartwigsen/Hutter/Teter
Generation date: Phys.Rev.B58, 3641 (1998); B54, 1703 (1996)
Pseudopotential type: NC
Element: Ti
Functional: SLA-PW-PBX-PBC

Suggested minimum cutoff for wavefunctions:   0. Ry
Suggested minimum cutoff for charge density:   0. Ry
The Pseudo was generated with a Non-Relativistic Calculation
Local Potential: unknown format, L component and cutoff radius: -3   0.0000

Valence configuration:
nl pn  l   occ       Rcut    Rcut US       E pseu

Generation configuration: not available.
Converted from CPMD format using cpmd2upf v.5.0.1 - PG 10Jul2012
Atomic orbitals could not be generated by ld1.x - use with care
</PP_INFO>
<!--                               -->
<!-- END OF HUMAN READABLE SECTION -->
<!--                               -->
<PP_HEADER generated="Generated in analytical, separable form" author="Goedecker/Hartwigsen/Hutter/Teter" date="Phys.Rev.B58, 3641 (1998); B54, 1703 (1996)" comment="Atomic orbitals could not be generated by ld1.x - use with care" element="Ti" pseudo_type="NC" relativistic="no" is_ultrasoft="F" is_paw="F" is_coulomb="F" has_so="F" has_wfc="F" has_gipaw="F" paw_as_gipaw="F" core_correction="F" functional="SLA-PW-PBX-PBC" z_valence="1.200000000000000E+001" total_psenergy="0.000000000000000E+000" wfc_cutoff="0.000000000000000E+000" rho_cutoff="0.000000000000000E+000" l_max="2" l_max_rho="0" l_local="-3" mesh_size="1177" number_of_wfc="0" number_of_proj="5"/>
<PP_MESH dx="1.250000000000000E-002" mesh="1177" xmin="-7.000000000000000E+000" rmax="1.003794541766914E+002" zmesh="2.200000000000000E+001">
<PP_R type="real" size="1177" columns="4">
4.144918025247801E-005  4.197054675768283E-005  4.249847124620828E-005  4.303303620732972E-005
4.357432516790999E-005  4.412242270545040E-005  4.467741446130630E-005  4.523938715406870E-005
4.580842859311411E-005  4.638462769232521E-005  4.696807448398350E-005  4.755886013283720E-005
4.815707695034592E-005  4.876281840910440E-005  4.937617915744808E-005  4.999725503424174E-005
5.062614308385469E-005  5.126294157132420E-005  5.190774999770943E-005  5.256066911563899E-005
5.322180094505338E-005  5.389124878914604E-005  5.456911725050459E-005  5.525551224745521E-005
5.595054103061277E-005  5.665431219963862E-005  5.736693572020975E-005  5.808852294120111E-005
5.881918661208400E-005  5.955904090054364E-005  6.030820141031780E-005  6.106678519926031E-005
6.183491079763153E-005  6.261269822661895E-005  6.340026901709085E-005  6.419774622858552E-005
6.500525446853975E-005  6.582291991175889E-005  6.665087032013196E-005  6.748923506259485E-005
6.833814513534419E-005  6.919773318230599E-005  7.006813351586138E-005  7.094948213783328E-005
7.184191676073714E-005  7.274557682929838E-005  7.366060354224122E-005  7.458713987435118E-005
7.552533059881518E-005  7.647532230984278E-005  7.743726344557155E-005  7.841130431126101E-005
7.939759710277816E-005  8.039629593037822E-005  8.140755684278499E-005  8.243153785157342E-005
8.346839895585942E-005  8.451830216730004E-005  8.558141153540807E-005  8.665789317318529E-005
8.774791528307769E-005  8.885164818325759E-005  8.996926433423621E-005  9.110093836581087E-005
9.224684710435155E-005  9.340716960042995E-005  9.458208715679679E-005  9.577178335671064E-005
9.697644409262310E-005  9.819625759522520E-005  9.943141446285842E-005  1.006821076912962E-004
1.019485327039001E-004  1.032308873821549E-004  1.045293720965880E-004  1.058441897380779E-004
1.071755457495560E-004  1.085236481581079E-004  1.098887076074774E-004  1.112709373909811E-004
1.126705534848345E-004  1.140877745818999E-004  1.155228221258572E-004  1.169759203458045E-004
1.184472962912954E-004  1.199371798678146E-004  1.214458038727023E-004  1.229734040315285E-004
1.245202190349258E-004  1.260864905758858E-004  1.276724633875233E-004  1.292783852813167E-004
1.309045071858292E-004  1.325510831859167E-004  1.342183705624294E-004  1.359066298324118E-004
1.376161247898098E-004  1.393471225466883E-004  1.410998935749686E-004  1.428747117486900E-004
1.446718543868030E-004  1.464916022965012E-004  1.483342398170977E-004  1.502000548644537E-004
1.520893389759669E-004  1.540023873561233E-004  1.559394989226243E-004  1.579009763530933E-004
1.598871261323695E-004  1.618982586003968E-004  1.639346880007150E-004  1.659967325295611E-004
1.680847143855878E-004  1.701989598202082E-004  1.723397991885731E-004  1.745075670011893E-004
1.767026019761877E-004  1.789252470922492E-004  1.811758496421950E-004  1.834547612872527E-004
1.857623381120030E-004  1.880989406800198E-004  1.904649340902081E-004  1.928606880338518E-004
1.952865768523791E-004  1.977429795958531E-004  2.002302800822003E-004  2.027488669571819E-004
2.052991337551212E-004  2.078814789603942E-004  2.104963060696930E-004  2.131440236550732E-004
2.158250454277944E-004  2.185397903029632E-004  2.212886824649892E-004  2.240721514338660E-004
2.268906321322826E-004  2.297445649535825E-004  2.326343958305752E-004  2.355605763052148E-004
2.385235635991538E-004  2.415238206851853E-004  2.445618163595828E-004  2.476380253153513E-004
2.507529282163987E-004  2.539070117726409E-004  2.571007688160504E-004  2.603346983776630E-004
2.636093057655521E-004  2.669251026437842E-004  2.702826071123679E-004  2.736823437882072E-004
2.771248438870744E-004  2.806106453066140E-004  2.841402927103891E-004  2.877143376129885E-004
2.913333384661993E-004  2.949978607462676E-004  2.987084770422554E-004  3.024657671455079E-004
3.062703181402485E-004  3.101227244953103E-004  3.140235881570242E-004  3.179735186432735E-004
3.219731331387327E-004  3.260230565913045E-004  3.301239218097678E-004  3.342763695626562E-004
3.384810486783793E-004  3.427386161466031E-004  3.470497372209074E-004  3.514150855227305E-004
3.558353431466261E-004  3.603112007668410E-004  3.648433577452343E-004  3.694325222405551E-004
3.740794113190923E-004  3.787847510667186E-004  3.835492767023426E-004  3.883737326927882E-004
3.932588728691197E-004  3.982054605444285E-004  4.032142686331026E-004  4.082860797715966E-004
4.134216864407189E-004  4.186218910894609E-004  4.238875062603785E-004  4.292193547165551E-004
4.346182695701597E-004  4.400850944126220E-004  4.456206834464467E-004  4.512259016186824E-004
4.569016247560721E-004  4.626487397019035E-004  4.684681444545791E-004  4.743607483079320E-004
4.803274719933025E-004  4.863692478234058E-004  4.924870198380073E-004  4.986817439514308E-004
5.049543881019231E-004  5.113059324028938E-004  5.177373692960626E-004  5.242497037065288E-004
5.308439531997929E-004  5.375211481407553E-004  5.442823318547100E-004  5.511285607903681E-004
5.580609046849295E-004  5.650804467312310E-004  5.721882837469999E-004  5.793855263462304E-004
5.866732991127215E-004  5.940527407757951E-004  6.015250043882240E-004  6.090912575064013E-004
6.167526823727698E-004  6.245104761005520E-004  6.323658508608014E-004  6.403200340718056E-004
6.483742685908753E-004  6.565298129085399E-004  6.647879413451919E-004  6.731499442502007E-004
6.816171282035319E-004  6.901908162199066E-004  6.988723479555197E-004  7.076630799173677E-004
7.165643856752046E-004  7.255776560761640E-004  7.347042994620852E-004  7.439457418895648E-004
7.533034273527843E-004  7.627788180091351E-004  7.723733944076848E-004  7.820886557205174E-004
7.919261199769780E-004  8.018873243008710E-004  8.119738251506387E-004  8.221871985625590E-004
8.325290403970082E-004  8.430009665878129E-004  8.536046133947459E-004  8.643416376591935E-004
8.752137170630423E-004  8.862225503908180E-004  8.973698577951265E-004  9.086573810654287E-004
9.200868839001996E-004  9.316601521825118E-004  9.433789942590792E-004  9.552452412228196E-004
9.672607471989625E-004  9.794273896347623E-004  9.917470695928533E-004  1.004221712048293E-003
1.016853266189346E-003  1.029643705722044E-003  1.042595029178588E-003  1.055709260229617E-003
1.068988448000414E-003  1.082434667391085E-003  1.096050019400767E-003  1.109836631455911E-003
1.123796657742700E-003  1.137932279543643E-003  1.152245705578407E-003  1.166739172348929E-003
1.181414944488879E-003  1.196275315117514E-003  1.211322606197977E-003  1.226559168900113E-003
1.241987383967844E-003  1.257609662091163E-003  1.273428444282810E-003  1.289446202259686E-003
1.305665438829065E-003  1.322088688279658E-003  1.338718516777604E-003  1.355557522767441E-003
1.372608337378114E-003  1.389873624834095E-003  1.407356082871677E-003  1.425058443160495E-003
1.442983471730361E-003  1.461133969403458E-003  1.479512772231974E-003  1.498122751941244E-003
1.516966816378458E-003  1.536047909967025E-003  1.555369014166638E-003  1.574933147939137E-003
1.594743368220229E-003  1.614802770397135E-003  1.635114488792258E-003  1.655681697152920E-003
1.676507609147273E-003  1.697595478866437E-003  1.718948601332958E-003  1.740570313015666E-003
1.762463992351000E-003  1.784633060270901E-003  1.807080980737333E-003  1.829811261283539E-003
1.852827453562101E-003  1.876133153899889E-003  1.899732003859996E-003  1.923627690810742E-003
1.947823948501827E-003  1.972324557647745E-003  1.997133346518519E-003  2.022254191537887E-003
2.047691017888992E-003  2.073447800127700E-003  2.099528562803642E-003  2.125937381089044E-003
2.152678381415497E-003  2.179755742118704E-003  2.207173694091362E-003  2.234936521444254E-003
2.263048562175634E-003  2.291514208849063E-003  2.320337909279746E-003  2.349524167229518E-003
2.379077543110564E-003  2.409002654697992E-003  2.439304177851370E-003  2.469986847245341E-003
2.501055457109420E-003  2.532514861977110E-003  2.564369977444426E-003  2.596625780937968E-003
2.629287312492658E-003  2.662359675539251E-003  2.695848037701761E-003  2.729757631604908E-003
2.764093755691726E-003  2.798861775051465E-003  2.834067122257883E-003  2.869715298218109E-003
2.905811873032163E-003  2.942362486863298E-003  2.979372850819289E-003  3.016848747844800E-003
3.054796033624990E-003  3.093220637500465E-003  3.132128563393754E-003  3.171525890747439E-003
3.211418775474073E-003  3.251813450918057E-003  3.292716228829613E-003  3.334133500351006E-003
3.376071737015178E-003  3.418537491756927E-003  3.461537399936834E-003  3.505078180378034E-003
3.549166636416053E-003  3.593809656961849E-003  3.639014217578207E-003  3.684787381569694E-003
3.731136301086310E-003  3.778068218241025E-003  3.825590466241382E-003  3.873710470535311E-003
3.922435749971388E-003  3.971773917973656E-003  4.021732683731242E-003  4.072319853402942E-003
4.123543331336932E-003  4.175411121305861E-003  4.227931327757433E-003  4.281112157080758E-003
4.334961918888621E-003  4.389489027315855E-003  4.444702002334095E-003  4.500609471083016E-003
4.557220169218352E-003  4.614542942276868E-003  4.672586747058473E-003  4.731360653025759E-003
4.790873843721109E-003  4.851135618201646E-003  4.912155392492241E-003  4.973942701056769E-003
5.036507198287905E-003  5.099858660015627E-003  5.164006985034717E-003  5.228962196651474E-003
5.294734444249862E-003  5.361334004877387E-003  5.428771284850894E-003  5.497056821382577E-003
5.566201284226452E-003  5.636215477345510E-003  5.707110340599875E-003  5.778896951456166E-003
5.851586526718374E-003  5.925190424280532E-003  5.999720144901374E-003  6.075187334001384E-003
6.151603783482396E-003  6.228981433570113E-003  6.307332374679786E-003  6.386668849305371E-003
6.467003253932437E-003  6.548348140975150E-003  6.630716220737610E-003  6.714120363399857E-003
6.798573601028868E-003  6.884089129614845E-003  6.970680311133113E-003  7.058360675631955E-003
7.147143923346712E-003  7.237043926840468E-003  7.328074733171672E-003  7.420250566089020E-003
7.513585828253935E-003  7.608095103491025E-003  7.703793159066824E-003  7.800694947997217E-003
7.898815611383871E-003  7.998170480780071E-003  8.098775080586295E-003  8.200645130475947E-003
8.303796547851577E-003  8.408245450332015E-003  8.514008158270777E-003  8.621101197306151E-003
8.729541300943371E-003  8.839345413169254E-003  8.950530691099731E-003  9.063114507660692E-003
9.177114454302521E-003  9.292548343748821E-003  9.409434212779667E-003  9.527790325049903E-003
9.647635173942870E-003  9.768987485460030E-003  9.891866221146952E-003  1.001629058105609E-002
1.014228000674681E-002  1.026985418432323E-002  1.039903304751011E-002  1.052983678076768E-002
1.066228582244535E-002  1.079640086797537E-002  1.093220287310647E-002  1.106971305717822E-002
1.120895290643666E-002  1.134994417739153E-002  1.149270890021575E-002  1.163726938218773E-002
1.178364821117689E-002  1.193186825917306E-002  1.208195268586030E-002  1.223392494223563E-002
1.238780877427331E-002  1.254362822663515E-002  1.270140764642761E-002  1.286117168700604E-002
1.302294531182682E-002  1.318675379834797E-002  1.335262274197877E-002  1.352057806007912E-002
1.369064599600919E-002  1.386285312322997E-002  1.403722634945545E-002  1.421379292085699E-002
1.439258042632061E-002  1.457361680175776E-002  1.475693033447045E-002  1.494254966757110E-002
1.513050380445817E-002  1.532082211334793E-002  1.551353433186335E-002  1.570867057168066E-002
1.590626132323434E-002  1.610633746048131E-002  1.630893024572508E-002  1.651407133450052E-002
1.672179278052011E-002  1.693212704068241E-002  1.714510698014350E-002  1.736076587745223E-002
1.757913742975006E-002  1.780025575803632E-002  1.802415541249968E-002  1.825087137791667E-002
1.848043907911815E-002  1.871289438652448E-002  1.894827362175039E-002  1.918661356328025E-002
1.942795145221485E-002  1.967232499809034E-002  1.991977238477043E-002  2.017033227641273E-002
2.042404382351008E-002  2.068094666900790E-002  2.094108095449845E-002  2.120448732649311E-002
2.147120694277340E-002  2.174128147882201E-002  2.201475313433467E-002  2.229166463981392E-002
2.257205926324590E-002  2.285598081686096E-002  2.314347366397952E-002  2.343458272594383E-002
2.372935348913710E-002  2.402783201209080E-002  2.433006493268138E-002  2.463609947541761E-002
2.494598345881939E-002  2.525976530288962E-002  2.557749403667981E-002  2.589921930595106E-002
2.622499138093122E-002  2.655486116416982E-002  2.688888019849160E-002  2.722710067505026E-002
2.756957544148335E-002  2.791635801016991E-002  2.826750256659183E-002  2.862306397780047E-002
2.898309780098971E-002  2.934766029217692E-002  2.971680841499307E-002  3.009059984958337E-002
3.046909300161998E-002  3.085234701142794E-002  3.124042176322602E-002  3.163337789448373E-002
3.203127680539607E-002  3.243418066847740E-002  3.284215243827602E-002  3.325525586121100E-002
3.367355548553264E-002  3.409711667140827E-002  3.452600560113495E-002  3.496028928948049E-002
3.540003559415478E-002  3.584531322641259E-002  3.629619176178988E-002  3.675274165097513E-002
3.721503423081737E-002  3.768314173547276E-002  3.815713730769126E-002  3.863709501024538E-002
3.912308983750264E-002  3.961519772714355E-002  4.011349557202708E-002  4.061806123220527E-002
4.112897354708909E-002  4.164631234776718E-002  4.217015846947969E-002  4.270059376424892E-002
4.323770111366883E-002  4.378156444185555E-002  4.433226872856059E-002  4.488990002244917E-002
4.545454545454548E-002  4.602629325184704E-002  4.660523275111042E-002  4.719145441281025E-002
4.778504983527385E-002  4.838611176899363E-002  4.899473413111963E-002  4.961101202013419E-002
5.023504173071128E-002  5.086692076876276E-002  5.150674786667395E-002  5.215462299873058E-002
5.281064739674016E-002  5.347492356584959E-002  5.414755530056175E-002  5.482864770095369E-002
5.551830718909865E-002  5.621664152569478E-002  5.692375982690295E-002  5.763977258139636E-002
5.836479166762464E-002  5.909893037129507E-002  5.984230340307373E-002  6.059502691650924E-002
6.135721852618198E-002  6.212899732608168E-002  6.291048390821599E-002  6.370180038145336E-002
6.450307039060263E-002  6.531441913573295E-002  6.613597339173645E-002  6.696786152813709E-002
6.781021352914868E-002  6.866316101398515E-002  6.952683725742634E-002  7.040137721064245E-002
7.128691752228043E-002  7.218359655981564E-002  7.309155443117198E-002  7.401093300661411E-002
7.494187594091495E-002  7.588452869580198E-002  7.683903856268601E-002  7.780555468567568E-002
7.878422808488163E-002  7.977521168001361E-002  8.077866031427451E-002  8.179473077855498E-002
8.282358183593226E-002  8.386537424647730E-002  8.492027079237378E-002  8.598843630335319E-002
8.707003768244986E-002  8.816524393207976E-002  8.927422618044763E-002  9.039715770828603E-002
9.153421397593080E-002  9.268557265073710E-002  9.385141363484033E-002  9.503191909326621E-002
9.622727348239435E-002  9.743766357878000E-002  9.866327850833834E-002  9.990430977589558E-002
1.011609512951122E-001  1.024333994187823E-001  1.037218529695138E-001  1.050265132707957E-001
1.063475841784542E-001  1.076852721125064E-001  1.090397860894136E-001  1.104113377547404E-001
1.118001414162250E-001  1.132064140772651E-001  1.146303754708250E-001  1.160722480937695E-001
1.175322572416294E-001  1.190106310438046E-001  1.205076004992094E-001  1.220233995123669E-001
1.235582649299567E-001  1.251124365778230E-001  1.266861572984478E-001  1.282796729888955E-001
1.298932326392348E-001  1.315270883714437E-001  1.331814954788047E-001  1.348567124657940E-001
1.365530010884743E-001  1.382706263953939E-001  1.400098567690015E-001  1.417709639675815E-001
1.435542231677168E-001  1.453599130072853E-001  1.471883156289983E-001  1.490397167244852E-001
1.509144055789340E-001  1.528126751162923E-001  1.547348219450373E-001  1.566811464045217E-001
1.586519526119019E-001  1.606475485096578E-001  1.626682459137082E-001  1.647143605621338E-001
1.667862121645112E-001  1.688841244518684E-001  1.710084252272687E-001  1.731594464170301E-001
1.753375241225898E-001  1.775429986730206E-001  1.797762146782081E-001  1.820375210826967E-001
1.843272712202126E-001  1.866458228688734E-001  1.889935383070913E-001  1.913707843701801E-001
1.937779325076736E-001  1.962153588413657E-001  1.986834442240800E-001  2.011825742991789E-001
2.037131395608212E-001  2.062755354149775E-001  2.088701622412132E-001  2.114974254552488E-001
2.141577355723065E-001  2.168515082712548E-001  2.195791644595582E-001  2.223411303390458E-001
2.251378374725053E-001  2.279697228511164E-001  2.308372289627311E-001  2.337408038610131E-001
2.366809012354478E-001  2.396579804822316E-001  2.426725067760536E-001  2.457249511427804E-001
2.488157905330546E-001  2.519455078968194E-001  2.551145922587800E-001  2.583235387948157E-001
2.615728489093515E-001  2.648630303137035E-001  2.681945971054100E-001  2.715680698485603E-001
2.749839756551340E-001  2.784428482673632E-001  2.819452281411304E-001  2.854916625304167E-001
2.890827055728107E-001  2.927189183760937E-001  2.964008691059143E-001  3.001291330745650E-001
3.039042928308761E-001  3.077269382512400E-001  3.115976666317810E-001  3.155170827816836E-001
3.194857991176953E-001  3.235044357598181E-001  3.275736206282032E-001  3.316939895412652E-001
3.358661863150297E-001  3.400908628637311E-001  3.443686793016749E-001  3.487003040463834E-001
3.530864139230354E-001  3.575276942702225E-001  3.620248390470353E-001  3.665785509414943E-001
3.711895414803479E-001  3.758585311402488E-001  3.805862494603304E-001  3.853734351561990E-001
3.902208362353589E-001  3.951292101140913E-001  4.000993237358006E-001  4.051319536908519E-001
4.102278863379149E-001  4.153879179268331E-001  4.206128547230408E-001  4.259035131335425E-001
4.312607198344786E-001  4.366853119002958E-001  4.421781369345403E-001  4.477400532022995E-001
4.533719297643058E-001  4.590746466127298E-001  4.648490948086820E-001  4.706961766214407E-001
4.766168056694354E-001  4.826119070630005E-001  4.886824175489254E-001  4.948292856568248E-001
5.010534718473457E-001  5.073559486622442E-001  5.137377008763450E-001  5.201997256514148E-001
5.267430326919725E-001  5.333686444030552E-001  5.400775960499730E-001  5.468709359200700E-001
5.537497254865218E-001  5.607150395741937E-001  5.677679665275824E-001  5.749096083808742E-001
5.821410810301383E-001  5.894635144076882E-001  5.968780526586375E-001  6.043858543196722E-001
6.119880925000771E-001  6.196859550650348E-001  6.274806448212319E-001  6.353733797048018E-001
6.433653929716276E-001  6.514579333900425E-001  6.596522654359511E-001  6.679496694904068E-001
6.763514420396747E-001  6.848588958778087E-001  6.934733603117803E-001  7.021961813691830E-001
7.110287220085536E-001  7.199723623323375E-001  7.290284998025307E-001  7.381985494590384E-001
7.474839441407756E-001  7.568861347095523E-001  7.664065902767746E-001  7.760467984329936E-001
7.858082654803478E-001  7.956925166679223E-001  8.057010964300750E-001  8.158355686277567E-001
8.260975167928667E-001  8.364885443756843E-001  8.470102749954098E-001  8.576643526938587E-001
8.684524421923481E-001  8.793762291518099E-001  8.904374204361819E-001  9.016377443791060E-001
9.129789510539852E-001  9.244628125474373E-001  9.360911232361834E-001  9.478657000674281E-001
9.597883828427558E-001  9.718610345056070E-001  9.840855414323667E-001  9.964638137271123E-001
1.008997785520075E+000  1.021689415269847E+000  1.034540686069397E+000  1.047553605955936E+000
1.060730208224669E+000  1.074072551746510E+000  1.087582721289780E+000  1.101262827845954E+000
1.115115008959517E+000  1.129141429061948E+000  1.143344279809926E+000  1.157725780427777E+000
1.172288178054231E+000  1.187033748093544E+000  1.201964794571037E+000  1.217083650493097E+000
1.232392678211723E+000  1.247894269793641E+000  1.263590847394076E+000  1.279484863635212E+000
1.295578801989422E+000  1.311875177167320E+000  1.328376535510680E+000  1.345085455390317E+000
1.362004547608956E+000  1.379136455809179E+000  1.396483856886497E+000  1.414049461407622E+000
1.431836014033998E+000  1.449846293950660E+000  1.468083115300486E+000  1.486549327623917E+000
1.505247816304197E+000  1.524181503018225E+000  1.543353346193071E+000  1.562766341468236E+000
1.582423522163730E+000  1.602327959754025E+000  1.622482764347995E+000  1.642891085174861E+000
1.663556111076273E+000  1.684481071004573E+000  1.705669234527319E+000  1.727123912338172E+000
1.748848456774189E+000  1.770846262339636E+000  1.793120766236389E+000  1.815675448900998E+000
1.838513834548519E+000  1.861639491723174E+000  1.885056033855944E+000  1.908767119829182E+000
1.932776454548309E+000  1.957087789520725E+000  1.981704923441979E+000  2.006631702789329E+000
2.031872022422766E+000  2.057429826193581E+000  2.083309107560613E+000  2.109513910214227E+000
2.136048328708150E+000  2.162916509099259E+000  2.190122649595402E+000  2.217671001211384E+000
2.245565868433192E+000  2.273811609890581E+000  2.302412639038121E+000  2.331373424844806E+000
2.360698492492340E+000  2.390392424082203E+000  2.420459859351620E+000  2.450905496398526E+000
2.481734092415649E+000  2.512950464433838E+000  2.544559490074734E+000  2.576566108312901E+000
2.608975320247556E+000  2.641792189884002E+000  2.675021844924882E+000  2.708669477571409E+000
2.742740345334636E+000  2.777239771856971E+000  2.812173147743998E+000  2.847545931406767E+000
2.883363649914697E+000  2.919631899859177E+000  2.956356348228046E+000  2.993542733291080E+000
3.031196865496601E+000  3.069324628379370E+000  3.107931979479916E+000  3.147024951275393E+000
3.186609652122178E+000  3.226692267210315E+000  3.267279059529958E+000  3.308376370849985E+000
3.349990622708902E+000  3.392128317418226E+000  3.434796039078485E+000  3.478000454607995E+000
3.521748314784586E+000  3.566046455300416E+000  3.610901797830064E+000  3.656321351112060E+000
3.702312212044006E+000  3.748881566791502E+000  3.796036691910967E+000  3.843784955486640E+000
3.892133818281848E+000  3.941090834904768E+000  3.990663654988857E+000  4.040860024388106E+000
4.091687786387359E+000  4.143154882927838E+000  4.195269355848086E+000  4.248039348140530E+000
4.301473105223825E+000  4.355578976231225E+000  4.410365415315156E+000  4.465840982968185E+000
4.522014347360630E+000  4.578894285694960E+000  4.636489685577263E+000  4.694809546405948E+000
4.753862980777919E+000  4.813659215912451E+000  4.874207595092934E+000  4.935517579126804E+000
4.997598747823800E+000  5.060460801492834E+000  5.124113562457692E+000  5.188566976591774E+000
5.253831114872171E+000  5.319916174953269E+000  5.386832482760152E+000  5.454590494102066E+000
5.523200796306135E+000  5.592674109871665E+000  5.663021290145248E+000  5.734253329016917E+000
5.806381356637679E+000  5.879416643158589E+000  5.953370600491760E+000  6.028254784093485E+000
6.104080894769797E+000  6.180860780504772E+000  6.258606438311760E+000  6.337330016107969E+000
6.417043814612591E+000  6.497760289268819E+000  6.579492052190045E+000  6.662251874130508E+000
6.746052686480761E+000  6.830907583288226E+000  6.916829823303164E+000  7.003832832050398E+000
7.091930203927050E+000  7.181135704326709E+000  7.271463271790304E+000  7.362927020184016E+000
7.455541240904629E+000  7.549320405112550E+000  7.644279165992981E+000  7.740432361045507E+000
7.837795014402470E+000  7.936382339176560E+000  8.036209739837838E+000  8.137292814620766E+000
8.239647357961426E+000  8.343289362965454E+000  8.448235023907007E+000  8.554500738759113E+000
8.662103111755917E+000  8.771058955987117E+000  8.881385296025043E+000  8.993099370584799E+000
9.106218635217811E+000  9.220760765039321E+000  9.336743657490153E+000  9.454185435133210E+000
9.573104448485207E+000  9.693519278883912E+000  9.815448741391560E+000  9.938911887734735E+000
1.006392800928123E+001  1.019051664005441E+001  1.031869755978537E+001  1.044849079700359E+001
1.057991663216647E+001  1.071299560082812E+001  1.084774849684817E+001  1.098419637564076E+001
1.112236055746457E+001  1.126226263075411E+001  1.140392445549294E+001  1.154736816662941E+001
1.169261617753523E+001  1.183969118350759E+001  1.198861616531542E+001  1.213941439279010E+001
1.229210942846149E+001  1.244672513123957E+001  1.260328566014246E+001  1.276181547807134E+001
1.292233935563277E+001  1.308488237500923E+001  1.324946993387819E+001  1.341612774938057E+001
1.358488186213912E+001  1.375575864032727E+001  1.392878478378929E+001  1.410398732821211E+001
1.428139364934975E+001  1.446103146730082E+001  1.464292885083984E+001  1.482711422180309E+001
1.501361635952949E+001  1.520246440535752E+001  1.539368786717853E+001  1.558731662404747E+001
1.578338093085158E+001  1.598191142303767E+001  1.618293912139907E+001  1.638649543692262E+001
1.659261217569677E+001  1.680132154388131E+001  1.701265615273964E+001  1.722664902373436E+001
1.744333359368692E+001  1.766274372000222E+001  1.788491368595891E+001  1.810987820606618E+001
1.833767243148798E+001  1.856833195553548E+001  1.880189281922858E+001  1.903839151692745E+001
1.927786500203475E+001  1.952035069276974E+001  1.976588647801494E+001  2.001451072323631E+001
2.026626227647805E+001  2.052118047443252E+001  2.077930514858679E+001  2.104067663144635E+001
2.130533576283714E+001  2.157332389628693E+001  2.184468290548679E+001  2.211945519083398E+001
2.239768368605712E+001  2.267941186492464E+001  2.296468374803768E+001  2.325354390970837E+001
2.354603748492466E+001  2.384221017640275E+001  2.414210826172823E+001  2.444577860058713E+001
2.475326864208770E+001  2.506462643217451E+001  2.537990062113573E+001  2.569914047120478E+001
2.602239586425779E+001  2.634971730960757E+001  2.668115595189588E+001  2.701676357908492E+001
2.735659263054919E+001  2.770069620526944E+001  2.804912807012926E+001  2.840194266831643E+001
2.875919512782973E+001  2.912094127009277E+001  2.948723761867629E+001  2.985814140812999E+001
3.023371059292556E+001  3.061400385651225E+001  3.099908062048616E+001  3.138900105387517E+001
3.178382608254026E+001  3.218361739869545E+001  3.258843747054727E+001  3.299834955205552E+001
3.341341769281696E+001  3.383370674807305E+001  3.425928238884373E+001  3.469021111218871E+001
3.512656025159772E+001  3.556839798751162E+001  3.601579335797555E+001  3.646881626942636E+001
3.692753750761563E+001  3.739202874867011E+001  3.786236257029127E+001  3.833861246309561E+001
3.882085284209784E+001  3.930915905833826E+001  3.980360741065663E+001  4.030427515761402E+001
4.081124052956447E+001  4.132458274087877E+001  4.184438200232186E+001  4.237071953358583E+001
4.290367757598086E+001  4.344333940528534E+001  4.398978934475807E+001  4.454311277831383E+001
4.510339616386483E+001  4.567072704683005E+001  4.624519407381415E+001  4.682688700645885E+001
4.741589673546837E+001  4.801231529481115E+001  4.861623587610060E+001  4.922775284315619E+001
4.984696174674816E+001  5.047395933952750E+001  5.110884359114366E+001  5.175171370355272E+001
5.240267012651766E+001  5.306181457330392E+001  5.372925003657236E+001  5.440508080447198E+001
5.508941247693534E+001  5.578235198217849E+001  5.648400759340894E+001  5.719448894574348E+001
5.791390705333882E+001  5.864237432673806E+001  5.938000459043467E+001  6.012691310065811E+001
6.088321656338269E+001  6.164903315256311E+001  6.242448252859959E+001  6.320968585703477E+001
6.400476582748621E+001  6.480984667281692E+001  6.562505418854684E+001  6.645051575250899E+001
6.728636034475211E+001  6.813271856769424E+001  6.898972266652969E+001  6.985750654989238E+001
7.073620581077977E+001  7.162595774773901E+001  7.252690138632047E+001  7.343917750080070E+001
7.436292863617849E+001  7.529829913044834E+001  7.624543513715288E+001  7.720448464822017E+001
7.817559751708747E+001  7.915892548211630E+001  8.015462219030174E+001  8.116284322128031E+001
8.218374611163931E+001  8.321749037953238E+001  8.426423754960454E+001  8.532415117823069E+001
8.639739687907185E+001  8.748414234895222E+001  8.858455739406249E+001  8.969881395649226E+001
9.082708614109632E+001  9.196955024269914E+001  9.312638477364089E+001  9.429777049167060E+001
9.548389042818998E+001  9.668492991685213E+001  9.790107662252090E+001  9.913252057059323E+001
1.003794541766914E+002
</PP_R>
<PP_RAB type="real" size="1177" columns="4">
5.181147531559752E-007  5.246318344710354E-007  5.312308905776035E-007  5.379129525916215E-007
5.446790645988750E-007  5.515302838181300E-007  5.584676807663288E-007  5.654923394258587E-007
5.726053574139265E-007  5.798078461540652E-007  5.871009310497938E-007  5.944857516604651E-007