Th    ONCVPSP-4.0.1  r_core=   1.20498   1.25651   1.20498   1.40776
90.0000     30.0000      220712    zatom,zion,pspd
8      11   3     4   600     0    pspcod,pspxc,lmax,lloc,mmax,r2well
5.99000000  5.00000000  0.00000000    rchrg fchrg qchrg
3     2     2     2     0    nproj
1     1           extension_switch
0                         4.1697844659426E+01  4.1576315165478E+00 -1.0361910271538E+00
1  0.0000000000000E+00 -1.3777724050534E-07  3.8400249036119E-07  1.5976378830995E-08
2  1.0000000000000E-02  1.6485151770768E-01 -1.0613482136374E-01  1.6664503544774E-02
3  2.0000000000000E-02  3.2815036271554E-01 -2.0936135933980E-01  3.3334808673171E-02
4  3.0000000000000E-02  4.8837737760893E-01 -3.0685845167046E-01  5.0013685243099E-02
5  4.0000000000000E-02  6.4407936424865E-01 -3.9597621139291E-01  6.6697968476046E-02
6  5.0000000000000E-02  7.9389942293509E-01 -4.7431435230209E-01  8.3375909342771E-02
7  6.0000000000000E-02  9.3660422738515E-01 -5.3979203065803E-01  1.0002489419800E-01
8  7.0000000000000E-02  1.0711073840729E+00 -5.9070684881674E-01  1.1660963716512E-01
9  8.0000000000000E-02  1.1964881622623E+00 -6.2578105046646E-01  1.3308093279543E-01
10  9.0000000000000E-02  1.3120050437548E+00 -6.4419339066462E-01  1.4937503753584E-01
11  1.0000000000000E-01  1.4171037231400E+00 -6.4559567064509E-01  1.6541372714070E-01
12  1.1000000000000E-01  1.5114193836551E+00 -6.3011346924690E-01  1.8110505404339E-01
13  1.2000000000000E-01  1.5947732736426E+00 -5.9833116040013E-01  1.9634480459973E-01
14  1.3000000000000E-01  1.6671638068872E+00 -5.5126185942683E-01  2.1101863180251E-01
15  1.4000000000000E-01  1.7287525996947E+00 -4.9030347018428E-01  2.2500481532250E-01
16  1.5000000000000E-01  1.7798460316538E+00 -4.1718249135552E-01  2.3817757832084E-01
17  1.6000000000000E-01  1.8208730693824E+00 -3.3388766612901E-01  2.5041087012130E-01
18  1.7000000000000E-01  1.8523602177435E+00 -2.4259590988788E-01  2.6158250618706E-01
19  1.8000000000000E-01  1.8749045565776E+00 -1.4559321290163E-01  2.7157854248861E-01
20  1.9000000000000E-01  1.8891458796268E+00 -4.5193380078524E-02  2.8029775074610E-01
21  2.0000000000000E-01  1.8957389739647E+00  5.6342468201296E-02  2.8765605453572E-01
22  2.1000000000000E-01  1.8953270621930E+00  1.5688275336001E-01  2.9359078408666E-01
23  2.2000000000000E-01  1.8885173765713E+00  2.5449591985596E-01  2.9806460985301E-01
24  2.3000000000000E-01  1.8758597461016E+00  3.4751205092893E-01  3.0106902157224E-01
25  2.4000000000000E-01  1.8578289576606E+00  4.3457346316150E-01  3.0262723033160E-01
26  2.5000000000000E-01  1.8348115049599E+00  5.1467253480874E-01  3.0279638583808E-01
27  2.6000000000000E-01  1.8070971698248E+00  5.8717549547074E-01  3.0166901918831E-01
28  2.7000000000000E-01  1.7748756952038E+00  6.5183142211601E-01  2.9937364241674E-01
29  2.8000000000000E-01  1.7382386152108E+00  7.0876622996022E-01  2.9607445932836E-01
30  2.9000000000000E-01  1.6971861114531E+00  7.5846199659809E-01  2.9197016689387E-01
31  3.0000000000000E-01  1.6516385740513E+00  8.0172249417452E-01  2.8729185204800E-01
32  3.1000000000000E-01  1.6014523670754E+00  8.3962630789151E-01  2.8230001431202E-01
33  3.2000000000000E-01  1.5464391381182E+00  8.7346937161743E-01  2.7728076948542E-01
34  3.3000000000000E-01  1.4863878762235E+00  9.0469913646629E-01  2.7254131297052E-01
35  3.4000000000000E-01  1.4210888163290E+00  9.3484289212967E-01  2.6840474240705E-01
36  3.5000000000000E-01  1.3503582156284E+00  9.6543297253888E-01  2.6520435757059E-01
37  3.6000000000000E-01  1.2740629904519E+00  9.9793168959975E-01  2.6327757038929E-01
38  3.7000000000000E-01  1.1921442027551E+00  1.0336588473239E+00  2.6295956902112E-01
39  3.8000000000000E-01  1.1046384230722E+00  1.0737245935034E+00  2.6457688689385E-01
40  3.9000000000000E-01  1.0116960704546E+00  1.1189701707623E+00  2.6844103025431E-01
41  4.0000000000000E-01  9.1359593681023E-01  1.1699188405303E+00  2.7484231604733E-01
42  4.1000000000000E-01  8.1075523927941E-01  1.2267388828486E+00  2.8404406592941E-01
43  4.2000000000000E-01  7.0373470490742E-01  1.2892201354249E+00  2.9627729212697E-01
44  4.3000000000000E-01  5.9323837103349E-01  1.3567650430679E+00  3.1173599701101E-01
45  4.4000000000000E-01  4.8010797604167E-01  1.4283946614074E+00  3.3057319112394E-01
46  4.5000000000000E-01  3.6531201145414E-01  1.5027695158093E+00  3.5289771450545E-01
47  4.6000000000000E-01  2.4992970069299E-01  1.5782246772627E+00  3.7877192414707E-01
48  4.7000000000000E-01  1.3513035515558E-01  1.6528179012460E+00  4.0821028694074E-01
49  4.8000000000000E-01  2.2148727856570E-02  1.7243892017271E+00  4.4117889329847E-01
50  4.9000000000000E-01 -8.7742867323513E-02  1.7906298175399E+00  4.7759588243995E-01
51  5.0000000000000E-01 -1.9326478208406E-01  1.8491581872248E+00  5.1733274690131E-01
52  5.1000000000000E-01 -2.9316162791011E-01  1.8976002930892E+00  5.6021646180414E-01
53  5.2000000000000E-01 -3.8623420546165E-01  1.9336715747189E+00  6.0603236448061E-01
54  5.3000000000000E-01 -4.7137071839521E-01  1.9552575518503E+00  6.5452769274679E-01
55  5.4000000000000E-01 -5.4757623973325E-01  1.9604903382504E+00  7.0541567592889E-01
56  5.5000000000000E-01 -6.1399945401420E-01  1.9478183700916E+00  7.5838006205164E-01
57  5.6000000000000E-01 -6.6995578772953E-01  1.9160669087298E+00  8.1307995765062E-01
58  5.7000000000000E-01 -7.1494616066333E-01  1.8644871998425E+00  8.6915485361068E-01
59  5.8000000000000E-01 -7.4867073725761E-01  1.7927925665262E+00  9.2622971126921E-01
60  5.9000000000000E-01 -7.7103722469638E-01  1.7011801686268E+00  9.8391998764821E-01
61  6.0000000000000E-01 -7.8216344690742E-01  1.5903376575273E+00  1.0418364868581E+00
62  6.1000000000000E-01 -7.8237411456828E-01  1.4614344768383E+00  1.0995899361123E+00
63  6.2000000000000E-01 -7.7219190359189E-01  1.3160980860189E+00  1.1567951989659E+00
64  6.3000000000000E-01 -7.5232314161608E-01  1.1563758970211E+00  1.2130750548207E+00
65  6.4000000000000E-01 -7.2363857713389E-01  9.8468419537102E-01  1.2680634918462E+00
66  6.5000000000000E-01 -6.8714986295212E-01  8.0374574969997E-01  1.3214084796109E+00
67  6.6000000000000E-01 -6.4398251928169E-01  6.1651818268584E-01  1.3727742072567E+00
68  6.7000000000000E-01 -5.9534624743969E-01  4.2611546906819E-01  1.4218427923170E+00
69  6.8000000000000E-01 -5.4250353947815E-01  2.3572513331241E-01  1.4683154836449E+00
70  6.9000000000000E-01 -4.8673756980959E-01  4.8523834230980E-02  1.5119133987744E+00
71  7.0000000000000E-01 -4.2932036109590E-01 -1.3240595648984E-01  1.5523778508485E+00
72  7.1000000000000E-01 -3.7148218861135E-01 -3.0415554973500E-01  1.5894703325465E+00
73  7.2000000000000E-01 -3.1438312653220E-01 -4.6406344149356E-01  1.6229722338402E+00
74  7.3000000000000E-01 -2.5908754888166E-01 -6.0978030390579E-01  1.6526843766378E+00
75  7.4000000000000E-01 -2.0654228095529E-01 -7.3932366737334E-01  1.6784264522540E+00
76  7.5000000000000E-01 -1.5755895868608E-01 -8.5112077736761E-01  1.7000364471156E+00
77  7.6000000000000E-01 -1.1280099896802E-01 -9.4403853587906E-01  1.7173701382273E+00
78  7.7000000000000E-01 -7.2775419373269E-02 -1.0173998927046E+00  1.7303007328409E+00
79  7.8000000000000E-01 -3.7829577143729E-02 -1.0709865189788E+00  1.7387187167582E+00
80  7.9000000000000E-01 -8.1527310152146E-03 -1.1050280573987E+00  1.7425319631062E+00
81  8.0000000000000E-01  1.6217828670145E-02 -1.1201786838891E+00  1.7416661386966E+00
82  8.1000000000000E-01  3.5386480419115E-02 -1.1174821185266E+00  1.7360654287217E+00
83  8.2000000000000E-01  4.9585327094139E-02 -1.0983265757299E+00  1.7256935830956E+00
84  8.3000000000000E-01  5.9157233795214E-02 -1.0643914335046E+00  1.7105352698269E+00
85  8.4000000000000E-01  6.4536552379909E-02 -1.0175876200773E+00  1.6905977029820E+00
86  8.5000000000000E-01  6.6228285859565E-02 -9.5999385759605E-01  1.6659124956958E+00
87  8.6000000000000E-01  6.4786465994906E-02 -8.9379096387117E-01  1.6365376728570E+00
88  8.7000000000000E-01  6.0792508819747E-02 -8.2119639464528E-01  1.6025597640966E+00
89  8.8000000000000E-01  5.4834276862762E-02 -7.4440111394051E-01  1.5640958860144E+00
90  8.9000000000000E-01  4.7486515858036E-02 -6.6551071479104E-01  1.5212957136099E+00
91  9.0000000000000E-01  3.9293250994540E-02 -5.8649248584251E-01  1.4743432349864E+00
92  9.1000000000000E-01  3.0752627260108E-02 -5.0912984168387E-01  1.4234581808238E+00
93  9.2000000000000E-01  2.2304564779503E-02 -4.3498521882752E-01  1.3688970210321E+00
94  9.3000000000000E-01  1.4321478175490E-02 -3.6537219844803E-01  1.3109534254903E+00
95  9.4000000000000E-01  7.1021840340236E-03 -3.0133726538937E-01  1.2499580938125E+00
96  9.5000000000000E-01  8.6899753812462E-04 -2.4365126431858E-01  1.1862778705810E+00
97  9.6000000000000E-01 -4.2320969509904E-03 -1.9281028149252E-01  1.1203140772454E+00
98  9.7000000000000E-01 -8.1284218731954E-03 -1.4904537627110E-01  1.0525000096616E+00
99  9.8000000000000E-01 -1.0815040190596E-02 -1.1234032036218E-01  9.8329757070995E-01
100  9.9000000000000E-01 -1.2347031257660E-02 -8.2456282864873E-02  9.1319303021122E-01
101  1.0000000000000E+00 -1.2830047221708E-02 -5.8962230709022E-02  8.4269192905827E-01
102  1.0100000000000E+00 -1.2409622101949E-02 -4.1269700055024E-02  7.7231317064904E-01
103  1.0200000000000E+00 -1.1259719530203E-02 -2.8670534217762E-02  7.0258236989006E-01
104  1.0300000000000E+00 -9.5710002513221E-03 -2.0376174771587E-02  6.3402455780675E-01
105  1.0400000000000E+00 -7.5392690872594E-03 -1.5557129009029E-02  5.6715636770790E-01
106  1.0500000000000E+00 -5.3545264179408E-03 -1.3381310372247E-02  5.0247785645797E-01
107  1.0600000000000E+00 -3.1910052150269E-03 -1.3050048525435E-02  4.4046414138814E-01
108  1.0700000000000E+00 -1.1985259449246E-03 -1.3830679999250E-02  3.8155705935284E-01
109  1.0800000000000E+00  5.0454652176949E-04 -1.5084744800495E-02  3.2615707907961E-01
110  1.0900000000000E+00  1.8365022948527E-03 -1.6290915004970E-02  2.7461572115286E-01
111  1.1000000000000E+00  2.7554312404995E-03 -1.7061852345143E-02  2.2722876134995E-01
112  1.1100000000000E+00  3.2601162019445E-03 -1.7154219003338E-02  1.8423051266873E-01
113  1.1200000000000E+00  3.3884693414116E-03 -1.6471034421041E-02  1.4578949903324E-01
114  1.1300000000000E+00  3.2130922883780E-03 -1.5055017949381E-02  1.1200579928924E-01
115  1.1400000000000E+00  2.8351798700069E-03 -1.3075663973981E-02  8.2910830440140E-02
116  1.1500000000000E+00  2.3103604656161E-03 -1.0641850786343E-02  5.8451246900493E-02
117  1.1600000000000E+00  1.5245729605490E-03 -7.4829640507891E-03  3.8461798664097E-02
118  1.1700000000000E+00  7.4769250383841E-04 -4.3447397762030E-03  2.2836043298934E-02
119  1.1800000000000E+00  1.9849847674979E-04 -1.8839342246172E-03  1.1422900483193E-02
120  1.1900000000000E+00 -3.3030613460064E-05 -4.5696902823142E-04  4.0291949691323E-03
121  1.2000000000000E+00 -2.1663771388738E-05 -1.3241620797508E-05  4.6531142930491E-04
122  1.2100000000000E+00  2.1195998674088E-06 -9.3504793175431E-07 -2.8576698270554E-05
123  1.2200000000000E+00  2.2789632026296E-08  3.2579680453130E-08 -6.2590882585964E-07
124  1.23  0. -0. -0.
125  1.24  0.  0.  0.
126  1.25  0.  0.  0.
127  1.26  0.  0.  0.
128  1.27  0.  0.  0.
129  1.28  0.  0.  0.
130  1.29  0.  0.  0.
131  1.30  0.  0.  0.
132  1.31  0.  0.  0.
133  1.32  0.  0.  0.
134  1.33  0.  0.  0.
135  1.34  0.  0.  0.
136  1.35  0.  0.  0.
137  1.36  0.  0.  0.
138  1.37  0.  0.  0.
139  1.38  0.  0.  0.
140  1.39  0.  0.  0.
141  1.40  0.  0.  0.
142  1.41  0.  0.  0.
143  1.42  0.  0.  0.
144  1.43  0.  0.  0.
145  1.44  0.  0.  0.
146  1.45  0.  0.  0.
147  1.46  0.  0.  0.
148  1.47  0.  0.  0.
149  1.48  0.  0.  0.
150  1.49  0.  0.  0.
151  1.50  0.  0.  0.
152  1.51  0.  0.  0.
153  1.52  0.  0.  0.
154  1.53  0.  0.  0.
155  1.54  0.  0.  0.
156  1.55  0.  0.  0.
157  1.56  0.  0.  0.
158  1.57  0.  0.  0.
159  1.58  0.  0.  0.
160  1.59  0.  0.  0.
161  1.60  0.  0.  0.
162  1.61  0.  0.  0.
163  1.62  0.  0.  0.
164  1.63  0.  0.  0.
165  1.64  0.  0.  0.
166  1.65  0.  0.  0.
167  1.66  0.  0.  0.
168  1.67  0.  0.  0.
169  1.68  0.  0.  0.
170  1.69  0.  0.  0.
171  1.70  0.  0.  0.
172  1.71  0.  0.  0.
173  1.72  0.  0.  0.
174  1.73  0.  0.  0.
175  1.74  0.  0.  0.
176  1.75  0.  0.  0.
177  1.76  0.  0.  0.
178  1.77  0.  0.  0.
179  1.78  0.  0.  0.
180  1.79  0.  0.  0.
181  1.80  0.  0.  0.
182  1.81  0.  0.  0.
183  1.82  0.  0.  0.
184  1.83  0.  0.  0.
185  1.84  0.  0.  0.
186  1.85  0.  0.  0.
187  1.86  0.  0.  0.
188  1.87  0.  0.  0.
189  1.88  0.  0.  0.
190  1.89  0.  0.  0.
191  1.90  0.  0.  0.
192  1.91  0.  0.  0.
193  1.92  0.  0.  0.
194  1.93  0.  0.  0.
195  1.94  0.  0.  0.
196  1.95  0.  0.  0.
197  1.96  0.  0.  0.
198  1.97  0.  0.  0.
199  1.98  0.  0.  0.
200  1.99  0.  0.  0.
201  2.00  0.  0.  0.
202  2.01  0.  0.  0.
203  2.02  0.  0.  0.
204  2.03  0.  0.  0.
205  2.04  0.  0.  0.
206  2.05  0.  0.  0.
207  2.06  0.  0.  0.
208  2.07  0.  0.  0.
209  2.08  0.  0.  0.
210  2.09  0.  0.  0.
211  2.10  0.  0.  0.
212  2.11  0.  0.  0.
213  2.12  0.  0.  0.
214  2.13  0.  0.  0.
215  2.14  0.  0.  0.
216  2.15  0.  0.  0.
217  2.16  0.  0.  0.
218  2.17  0.  0.  0.
219  2.18  0.  0.  0.
220  2.19  0.  0.  0.
221  2.20  0.  0.  0.
222  2.21  0.  0.  0.
223  2.22  0.  0.  0.
224  2.23  0.  0.  0.
225  2.24  0.  0.  0.
226  2.25  0.  0.  0.
227  2.26  0.  0.  0.
228  2.27  0.  0.  0.
229  2.28  0.  0.  0.
230  2.29  0.  0.  0.
231  2.30  0.  0.  0.
232  2.31  0.  0.  0.
233  2.32  0.  0.  0.
234  2.33  0.  0.  0.
235  2.34  0.  0.  0.
236  2.35  0.  0.  0.
237  2.36  0.  0.  0.
238  2.37  0.  0.  0.
239  2.38  0.  0.  0.
240  2.39  0.  0.  0.
241  2.40  0.  0.  0.
242  2.41  0.  0.  0.
243  2.42  0.  0.  0.
244  2.43  0.  0.  0.
245  2.44  0.  0.  0.
246  2.45  0.  0.  0.
247  2.46  0.  0.  0.
248  2.47  0.  0.  0.
249  2.48  0.  0.  0.
250  2.49  0.  0.  0.
251  2.50  0.  0.  0.
252  2.51  0.  0.  0.
253  2.52  0.  0.  0.
254  2.53  0.  0.  0.
255  2.54  0.  0.  0.
256  2.55  0.  0.  0.
257  2.56  0.  0.  0.
258  2.57  0.  0.  0.
259  2.58  0.  0.  0.
260  2.59  0.  0.  0.
261  2.60  0.  0.  0.
262  2.61  0.  0.  0.
263  2.62  0.  0.  0.
264  2.63  0.  0.  0.
265  2.64  0.  0.  0.
266  2.65  0.  0.  0.
267  2.66  0.  0.  0.
268  2.67  0.  0.  0.
269  2.68  0.  0.  0.
270  2.69  0.  0.  0.
271  2.70  0.  0.  0.
272  2.71  0.  0.  0.
273  2.72  0.  0.  0.
274  2.73  0.  0.  0.
275  2.74  0.  0.  0.
276  2.75  0.  0.  0.
277  2.76  0.  0.  0.
278  2.77  0.  0.  0.
279  2.78  0.  0.  0.
280  2.79  0.  0.  0.
281  2.80  0.  0.  0.
282  2.81  0.  0.  0.
283  2.82  0.  0.  0.
284  2.83  0.  0.  0.
285  2.84  0.  0.  0.
286  2.85  0.  0.  0.
287  2.86  0.  0.  0.
288  2.87  0.  0.  0.
289  2.88  0.  0.  0.
290  2.89  0.  0.  0.
291  2.90  0.  0.  0.
292  2.91  0.  0.  0.
293  2.92  0.  0.  0.
294  2.93  0.  0.  0.
295  2.94  0.  0.  0.
296  2.95  0.  0.  0.
297  2.96  0.  0.  0.
298  2.97  0.  0.  0.
299  2.98  0.  0.  0.
300  2.99  0.  0.  0.
301  3.00  0.  0.  0.
302  3.01  0.  0.  0.
303  3.02  0.  0.  0.
304  3.03  0.  0.  0.
305  3.04  0.  0.  0.
306  3.05  0.  0.  0.
307  3.06  0.  0.  0.
308  3.07  0.  0.  0.
309  3.08  0.  0.  0.
310  3.09  0.  0.  0.
311  3.10  0.  0.  0.
312  3.11  0.  0.  0.
313  3.12  0.  0.  0.
314  3.13  0.  0.  0.
315  3.14  0.  0.  0.
316  3.15  0.  0.  0.
317  3.16  0.  0.  0.
318  3.17  0.  0.  0.
319  3.18  0.  0.  0.
320  3.19  0.  0.  0.
321  3.20  0.  0.  0.
322  3.21  0.  0.  0.
323  3.22  0.  0.  0.
324  3.23  0.  0.  0.
325  3.24  0.  0.  0.
326  3.25  0.  0.  0.
327  3.26  0.  0.  0.
328  3.27  0.  0.  0.
329  3.28  0.  0.  0.
330  3.29  0.  0.  0.
331  3.30  0.  0.  0.
332  3.31  0.  0.  0.
333  3.32  0.  0.  0.
334  3.33  0.  0.  0.
335  3.34  0.  0.  0.
336  3.35  0.  0.  0.
337  3.36  0.  0.  0.
338  3.37  0.  0.  0.
339  3.38  0.  0.  0.
340  3.39  0.  0.  0.
341  3.40  0.  0.  0.
342  3.41  0.  0.  0.
343  3.42  0.  0.  0.
344  3.43  0.  0.  0.
345  3.44  0.  0.  0.
346  3.45  0.  0.  0.
347  3.46  0.  0.  0.
348  3.47  0.  0.  0.
349  3.48  0.  0.  0.
350  3.49  0.  0.  0.
351  3.50  0.  0.  0.
352  3.51  0.  0.  0.
353  3.52  0.  0.  0.
354  3.53  0.  0.  0.
355  3.54  0.  0.  0.
356  3.55  0.  0.  0.
357  3.56  0.  0.  0.
358  3.57  0.  0.  0.
359  3.58  0.  0.  0.
360  3.59  0.  0.  0.
361  3.60  0.  0.  0.
362  3.61  0.  0.  0.
363  3.62  0.  0.  0.
364  3.63  0.  0.  0.
365  3.64  0.  0.  0.
366  3.65  0.  0.  0.
367  3.66  0.  0.  0.
368  3.67  0.  0.  0.
369  3.68  0.  0.  0.
370  3.69  0.  0.  0.
371  3.70  0.  0.  0.
372  3.71  0.  0.  0.
373  3.72  0.  0.  0.
374  3.73  0.  0.  0.
375  3.74  0.  0.  0.
376  3.75  0.  0.  0.
377  3.76  0.  0.  0.
378  3.77  0.  0.  0.
379  3.78  0.  0.  0.
380  3.79  0.  0.  0.
381  3.80  0.  0.  0.
382  3.81  0.  0.  0.
383  3.82  0.  0.  0.
384  3.83  0.  0.  0.
385  3.84  0.  0.  0.
386  3.85  0.  0.  0.
387  3.86  0.  0.  0.
388  3.87  0.  0.  0.
389  3.88  0.  0.  0.
390  3.89  0.  0.  0.
391  3.90  0.  0.  0.
392  3.91  0.  0.  0.
393  3.92  0.  0.  0.
394  3.93  0.  0.  0.
395  3.94  0.  0.  0.
396  3.95  0.  0.  0.
397  3.96  0.  0.  0.
398  3.97  0.  0.  0.
399  3.98  0.  0.  0.
400  3.99  0.  0.  0.
401  4.00  0.  0.  0.
402  4.01  0.  0.  0.
403  4.02  0.  0.  0.
404  4.03  0.  0.  0.
405  4.04  0.  0.  0.
406  4.05  0.  0.  0.
407  4.06  0.  0.  0.
408  4.07  0.  0.  0.
409  4.08  0.  0.  0.
410  4.09  0.  0.  0.
411  4.10  0.  0.  0.
412  4.11  0.  0.  0.
413  4.12  0.  0.  0.
414  4.13  0.  0.  0.
415  4.14  0.  0.  0.
416  4.15  0.  0.  0.
417  4.16  0.  0.  0.
418  4.17  0.  0.  0.
419  4.18  0.  0.  0.
420  4.19  0.  0.  0.
421  4.20  0.  0.  0.
422  4.21  0.  0.  0.
423  4.22  0.  0.  0.
424  4.23  0.  0.  0.
425  4.24  0.  0.  0.
426  4.25  0.  0.  0.
427  4.26  0.  0.  0.
428  4.27  0.  0.  0.
429  4.28  0.  0.  0.
430  4.29  0.  0.  0.
431  4.30  0.  0.  0.
432  4.31  0.  0.  0.
433  4.32  0.  0.  0.
434  4.33  0.  0.  0.
435  4.34  0.  0.  0.
436  4.35  0.  0.  0.
437  4.36  0.  0.  0.
438  4.37  0.  0.  0.
439  4.38  0.  0.  0.
440  4.39  0.  0.  0.
441  4.40  0.  0.  0.
442  4.41  0.  0.  0.
443  4.42  0.  0.  0.
444  4.43  0.  0.  0.
445  4.44  0.  0.  0.
446  4.45  0.  0.  0.
447  4.46  0.  0.  0.
448  4.47  0.  0.  0.
449  4.48  0.  0.  0.
450  4.49  0.  0.  0.
451  4.50  0.  0.  0.
452  4.51  0.  0.  0.
453  4.52  0.  0.  0.
454  4.53  0.  0.  0.
455  4.54  0.  0.  0.
456  4.55  0.  0.  0.
457  4.56  0.  0.  0.
458  4.57  0.  0.  0.
459  4.58  0.  0.  0.
460  4.59  0.  0.  0.
461  4.60  0.  0.  0.
462  4.61  0.  0.  0.
463  4.62  0.  0.  0.
464  4.63  0.  0.  0.
465  4.64  0.  0.  0.
466  4.65  0.  0.  0.
467  4.66  0.  0.  0.
468  4.67  0.  0.  0.
469  4.68  0.  0.  0.
470  4.69  0.  0.  0.
471  4.70  0.  0.  0.
472  4.71  0.  0.  0.
473  4.72  0.  0.  0.
474  4.73  0.  0.  0.
475  4.74  0.  0.  0.
476  4.75  0.  0.  0.
477  4.76  0.  0.  0.
478  4.77  0.  0.  0.
479  4.78  0.  0.  0.
480  4.79  0.  0.  0.
481  4.80  0.  0.  0.
482  4.81  0.  0.  0.
483  4.82  0.  0.  0.
484  4.83  0.  0.  0.
485  4.84  0.  0.  0.
486  4.85  0.  0.  0.
487  4.86  0.  0.  0.
488  4.87  0.  0.  0.
489  4.88  0.  0.  0.
490  4.89  0.  0.  0.
491  4.90  0.  0.  0.
492  4.91  0.  0.  0.
493  4.92  0.  0.  0.
494  4.93  0.  0.  0.
495  4.94  0.  0.  0.
496  4.95  0.  0.  0.
497  4.96  0.  0.  0.
498  4.97  0.  0.  0.
499  4.98  0.  0.  0.
500  4.99  0.  0.  0.
501  5.00  0.  0.  0.
502  5.01  0.  0.  0.
503  5.02  0.  0.  0.
504  5.03  0.  0.  0.
505  5.04  0.  0.  0.
506  5.05  0.  0.  0.
507  5.06  0.  0.  0.
508  5.07  0.  0.  0.
509  5.08  0.  0.  0.
510  5.09  0.  0.  0.
511  5.10  0.  0.  0.
512  5.11  0.  0.  0.
513  5.12  0.  0.  0.
514  5.13  0.  0.  0.
515  5.14  0.  0.  0.
516  5.15  0.  0.  0.
517  5.16  0.  0.  0.
518  5.17  0.  0.  0.
519  5.18  0.  0.  0.
520  5.19  0.  0.  0.
521  5.20  0.  0.  0.
522  5.21  0.  0.  0.
523  5.22  0.  0.  0.
524  5.23  0.  0.  0.
525  5.24  0.  0.  0.
526  5.25  0.  0.  0.
527  5.26  0.  0.  0.
528  5.27  0.  0.  0.
529  5.28  0.  0.  0.
530  5.29  0.  0.  0.
531  5.30  0.  0.  0.
532  5.31  0.  0.  0.
533  5.32  0.  0.  0.
534  5.33  0.  0.  0.
535  5.34  0.  0.  0.
536  5.35  0.  0.  0.
537  5.36  0.  0.  0.
538  5.37  0.  0.  0.
539  5.38  0.  0.  0.
540  5.39  0.  0.  0.
541  5.40  0.  0.  0.
542  5.41  0.  0.  0.
543  5.42  0.  0.  0.
544  5.43  0.  0.  0.
545  5.44  0.  0.  0.
546  5.45  0.  0.  0.
547  5.46  0.  0.  0.
548  5.47  0.  0.  0.
549  5.48  0.  0.  0.
550  5.49  0.  0.  0.
551  5.50  0.  0.  0.
552  5.51  0.  0.  0.
553  5.52  0.  0.  0.
554  5.53  0.  0.  0.
555  5.54  0.  0.  0.
556  5.55  0.  0.  0.
557  5.56  0.  0.  0.
558  5.57  0.  0.  0.
559  5.58  0.  0.  0.
560  5.59  0.  0.  0.
561  5.60  0.  0.  0.
562  5.61  0.  0.  0.
563  5.62  0.  0.  0.
564  5.63  0.  0.  0.
565  5.64  0.  0.  0.
566  5.65  0.  0.  0.
567  5.66  0.  0.  0.
568  5.67  0.  0.  0.
569  5.68  0.  0.  0.
570  5.69  0.  0.  0.
571  5.70  0.  0.  0.
572  5.71  0.  0.  0.
573  5.72  0.  0.  0.
574  5.73  0.  0.  0.
575  5.74  0.  0.  0.
576  5.75  0.  0.  0.
577  5.76  0.  0.  0.
578  5.77  0.  0.  0.
579  5.78  0.  0.  0.
580  5.79  0.  0.  0.
581  5.80  0.  0.  0.
582  5.81  0.  0.  0.
583  5.82  0.  0.  0.
584  5.83  0.  0.  0.
585  5.84  0.  0.  0.
586  5.85  0.  0.  0.
587  5.86  0.  0.  0.
588  5.87  0.  0.  0.
589  5.88  0.  0.  0.
590  5.89  0.  0.  0.
591  5.90  0.  0.  0.
592  5.91  0.  0.  0.
593  5.92  0.  0.  0.
594  5.93  0.  0.  0.
595  5.94  0.  0.  0.
596  5.95  0.  0.  0.
597  5.96  0.  0.  0.
598  5.97  0.  0.  0.
599  5.98  0.  0.  0.
600  5.99  0.  0.  0.
1                         9.7574433576298E+00 -5.9044578225252E-01
1  0.0000000000000E+00 -7.2238742765407E-10 -1.1612452520404E-08
2  1.0000000000000E-02  3.5946846612865E-03  7.9808811555847E-04
3  2.0000000000000E-02  1.4352879745237E-02  3.1891647397186E-03
4  3.0000000000000E-02  3.2197146145799E-02  7.1635182833419E-03
5  4.0000000000000E-02  5.6998878212566E-02  1.2704476062995E-02
6  5.0000000000000E-02  8.8578996055005E-02  1.9787702087449E-02
7  6.0000000000000E-02  1.2670892055579E-01  2.8380268600511E-02
8  7.0000000000000E-02  1.7111183632461E-01  3.8439553638576E-02
9  8.0000000000000E-02  2.2146424854624E-01  4.9912028473761E-02
10  9.0000000000000E-02  2.7739783985767E-01  6.2732008084637E-02
11  1.0000000000000E-01  3.3850163294900E-01  7.6820444365388E-02
12  1.1000000000000E-01  4.0432446346420E-01  9.2083845375925E-02
13  1.2000000000000E-01  4.7437776594835E-01  1.0841340437397E-01
14  1.3000000000000E-01  5.4813867304039E-01  1.2568441958037E-01
15  1.4000000000000E-01  6.2505342486662E-01  1.4375607964361E-01
16  1.5000000000000E-01  7.0454108169605E-01  1.6247168072761E-01
17  1.6000000000000E-01  7.8599752844941E-01  1.8165932928845E-01
18  1.7000000000000E-01  8.6879975470477E-01  2.0113317026853E-01
19  1.8000000000000E-01  9.5231038853496E-01  2.2069516404439E-01
20  1.9000000000000E-01  1.0358824569815E+00  2.4013741751352E-01
21  2.0000000000000E-01  1.1188643403681E+00  2.5924505575289E-01
22  2.1000000000000E-01  1.2006048821475E+00  2.7779960132662E-01
23  2.2000000000000E-01  1.2804586107181E+00  2.9558280918328E-01
24  2.3000000000000E-01  1.3577910248215E+00  3.1238088679392E-01
25  2.4000000000000E-01  1.4319838898819E+00  3.2798901235092E-01
26  2.5000000000000E-01  1.5024404891417E+00  3.4221604905522E-01
27  2.6000000000000E-01  1.5685907708106E+00  3.5488934128958E-01
28  2.7000000000000E-01  1.6298963307975E+00  3.6585946926673E-01
29  2.8000000000000E-01  1.6858551700319E+00  3.7500483292340E-01
30  2.9000000000000E-01  1.7360061659673E+00  3.8223593367963E-01
31  3.0000000000000E-01  1.7799331996348E+00  3.8749922436433E-01
32  3.1000000000000E-01  1.8172688825853E+00  3.9078040317516E-01
33  3.2000000000000E-01  1.8476978321991E+00  3.9210703692959E-01
34  3.3000000000000E-01  1.8709594490992E+00  3.9155041189255E-01
35  3.4000000000000E-01  1.8868501566853E+00  3.8922652683958E-01
36  3.5000000000000E-01  1.8952250700042E+00  3.8529616233112E-01
37  3.6000000000000E-01  1.8959990691335E+00  3.7996398193821E-01
38  3.7000000000000E-01  1.8891472608332E+00  3.7347664479200E-01
39  3.8000000000000E-01  1.8747048212135E+00  3.6611993368672E-01
40  3.9000000000000E-01  1.8527662213972E+00  3.5821492835572E-01
41  4.0000000000000E-01  1.8234838474107E+00  3.5011327874565E-01
42  4.1000000000000E-01  1.7870660346143E+00  3.4219165740953E-01
43  4.2000000000000E-01  1.7437745456830E+00  3.3484549281973E-01
44  4.3000000000000E-01  1.6939215292757E+00  3.2848210579334E-01
45  4.4000000000000E-01  1.6378660039065E+00  3.2351338871639E-01
46  4.5000000000000E-01  1.5760099180040E+00  3.2034818130967E-01
47  4.6000000000000E-01  1.5087938425645E+00  3.1938450686177E-01
48  4.7000000000000E-01  1.4366923570814E+00  3.2100183882618E-01
49  4.8000000000000E-01  1.3602091924784E+00  3.2555356922911E-01
50  4.9000000000000E-01  1.2798721965470E+00  3.3335984737455E-01
51  5.0000000000000E-01  1.1962281878801E+00  3.4470094990892E-01
52  5.1000000000000E-01  1.1098377635254E+00  3.5981133159358E-01
53  5.2000000000000E-01  1.0212701236135E+00  3.7887449043375E-01
54  5.3000000000000E-01  9.3109797312903E-01  4.0201876154563E-01
55  5.4000000000000E-01  8.3989255690743E-01  4.2931413184074E-01
56  5.5000000000000E-01  7.4821887899764E-01  4.6077014288477E-01
57  5.6000000000000E-01  6.5663115188259E-01  4.9633492284411E-01
58  5.7000000000000E-01  5.6566851488112E-01  5.3589536101187E-01
59  5.8000000000000E-01  4.7585105454113E-01  5.7927841078571E-01
60  5.9000000000000E-01  3.8767615316641E-01  6.2625347993653E-01
61  6.0000000000000E-01  3.0161518498268E-01  6.7653584132976E-01
62  6.1000000000000E-01  2.1811057301728E-01  7.2979097366630E-01
63  6.2000000000000E-01  1.3757321370596E-01  7.8563972096536E-01
64  6.3000000000000E-01  6.0380270691823E-02  8.4366414199644E-01
65  6.4000000000000E-01 -1.3126665631913E-02  9.0341390716342E-01
66  6.5000000000000E-01 -8.2643060470329E-02  9.6441309081194E-01
67  6.6000000000000E-01 -1.4790256989457E-01  1.0261672018054E+00
68  6.7000000000000E-01 -2.0867784262573E-01  1.0881702945920E+00
69  6.8000000000000E-01 -2.6478100367344E-01  1.1499120068226E+00
70  6.9000000000000E-01 -3.1606383611306E-01  1.2108843776933E+00
71  7.0000000000000E-01 -3.6241767749494E-01  1.2705883132625E+00
72  7.1000000000000E-01 -4.0377304693971E-01  1.3285395805944E+00
73  7.2000000000000E-01 -4.4009901799651E-01  1.3842742311519E+00
74  7.3000000000000E-01 -4.7140235095740E-01  1.4373533747701E+00
75  7.4000000000000E-01 -4.9772639667430E-01  1.4873672480704E+00
76  7.5000000000000E-01 -5.1914978216930E-01  1.5339385445567E+00
77  7.6000000000000E-01 -5.3578488661995E-01  1.5767249971021E+00
78  7.7000000000000E-01 -5.4777611479031E-01  1.6154212262784E+00
79  7.8000000000000E-01 -5.5529797380881E-01  1.6497598892711E+00
80  7.9000000000000E-01 -5.5855295849169E-01  1.6795121832397E+00
81  8.0000000000000E-01 -5.5776925028246E-01  1.7044877733080E+00
82  8.1000000000000E-01 -5.5319823540322E-01  1.7245342283766E+00
83  8.2000000000000E-01 -5.4511184904470E-01  1.7395360572189E+00
84  8.3000000000000E-01 -5.3379975437650E-01  1.7494134425827E+00
85  8.4000000000000E-01 -5.1956636782339E-01  1.7541207721234E+00
86  8.5000000000000E-01 -5.0272774537701E-01  1.7536450619547E+00
87  8.6000000000000E-01 -4.8360834861264E-01  1.7480043615710E+00
88  8.7000000000000E-01 -4.6253771344178E-01  1.7372462181771E+00
89  8.8000000000000E-01 -4.3984704930856E-01  1.7214462644912E+00
90  8.9000000000000E-01 -4.1586580136269E-01  1.7007069774289E+00
91  9.0000000000000E-01 -3.9091821292219E-01  1.6751566364019E+00
92  9.1000000000000E-01 -3.6531993007277E-01  1.6449484900304E+00
93  9.2000000000000E-01 -3.3937469432346E-01  1.6102601197037E+00
94  9.3000000000000E-01 -3.1337117263564E-01  1.5712929684800E+00
95  9.4000000000000E-01 -2.8757997665564E-01  1.5282719851946E+00
96  9.5000000000000E-01 -2.6225092441186E-01  1.4814453171863E+00
97  9.6000000000000E-01 -2.3761059790596E-01  1.4310839716057E+00
98  9.7000000000000E-01 -2.1386024877896E-01  1.3774813555953E+00
99  9.8000000000000E-01 -1.9117410143915E-01  1.3209526004053E+00
100  9.9000000000000E-01 -1.6969809861180E-01  1.2618335743189E+00
101  1.0000000000000E+00 -1.4954912814645E-01  1.2004794945560E+00
102  1.0100000000000E+00 -1.3081476208677E-01  1.1372630594297E+00
103  1.0200000000000E+00 -1.1355352949336E-01  1.0725720391247E+00
104  1.0300000000000E+00 -9.7795733372392E-02  1.0068062865807E+00
105  1.0400000000000E+00 -8.3544809400040E-02  9.4037415901757E-01
106  1.0500000000000E+00 -7.0779210105377E-02  8.7368837531330E-01
107  1.0600000000000E+00 -5.9454782925488E-02  8.0716137443947E-01
108  1.0700000000000E+00 -4.9507594286550E-02  7.4120028494849E-01
109  1.0800000000000E+00 -4.0857134858848E-02  6.7620166436670E-01
110  1.0900000000000E+00 -3.3409823523414E-02  6.1254621988801E-01
111  1.1000000000000E+00 -2.7062709770259E-02  5.5059377680167E-01
112  1.1100000000000E+00 -2.1707256334870E-02  4.9067881827857E-01
113  1.1200000000000E+00 -1.7233066248612E-02  4.3310697829668E-01
114  1.1300000000000E+00 -1.3531401302064E-02  3.7815292803394E-01
115  1.1400000000000E+00 -1.0498322469069E-02  3.2606015410178E-01
116  1.1500000000000E+00 -8.0372673215067E-03  2.7704318379502E-01
117  1.1600000000000E+00 -6.0608650563916E-03  2.3129286746893E-01
118  1.1700000000000E+00 -4.4917737805927E-03  1.8898538775442E-01
119  1.1800000000000E+00 -3.2623811936965E-03  1.5029554601614E-01
120  1.1900000000000E+00 -2.3127197192040E-03  1.1541609937542E-01
121  1.2000000000000E+00 -1.6004521178390E-03  8.4548205366028E-02
122  1.2100000000000E+00 -1.1013429087174E-03  5.7914014044861E-02
123  1.2200000000000E+00 -7.3259812776516E-04  3.5946333588757E-02
124  1.2300000000000E+00 -4.3763108299431E-04  1.9015612081596E-02
125  1.2400000000000E+00 -1.9861556364177E-04  7.3741318607479E-03