Th    ONCVPSP-4.0.1  r_core=   1.20498   1.25651   1.20498   1.40776
90.0000     30.0000      230612    zatom,zion,pspd
8      11   3     4   600     0    pspcod,pspxc,lmax,lloc,mmax,r2well
5.99000000  5.00000000  0.00000000    rchrg fchrg qchrg
3     3     3     2    nproj
3     1           extension_switch
3     4     4    nprojso
0                         4.2138752829305E+01  4.1848722059020E+00 -1.0287179840935E+00
1  0.0000000000000E+00 -1.4066531539569E-07  3.9064671475408E-07  1.6396262930707E-08
2  1.0000000000000E-02  1.6508307858174E-01 -1.0685602381206E-01  1.6459467201653E-02
3  2.0000000000000E-02  3.2860030327516E-01 -2.1077178811045E-01  3.2927618974127E-02
4  3.0000000000000E-02  4.8901989397672E-01 -3.0889544036115E-01  4.9410008548187E-02
5  4.0000000000000E-02  6.4487712551351E-01 -3.9854892606181E-01  6.5906058670231E-02
6  5.0000000000000E-02  7.9480516206811E-01 -4.7730745499108E-01  8.2406322401355E-02
7  6.0000000000000E-02  9.3756276652781E-01 -5.4307034404861E-01  9.8890122853337E-02
8  7.0000000000000E-02  1.0720580165790E+00 -5.9412084401778E-01  1.1532367807557E-01
9  8.0000000000000E-02  1.1973673000326E+00 -6.2917294822963E-01  1.3165880091062E-01
10  9.0000000000000E-02  1.3127490279634E+00 -6.4740364244626E-01  1.4783224414843E-01
11  1.0000000000000E-01  1.4176516898090E+00 -6.4846957078236E-01  1.6376573935378E-01
12  1.1000000000000E-01  1.5117160729339E+00 -6.3250764366445E-01  1.7936675402273E-01
13  1.2000000000000E-01  1.5947716732017E+00 -6.0011968094154E-01  1.9452996700131E-01
14  1.3000000000000E-01  1.6668275254843E+00 -5.5234174598832E-01  2.0913943716756E-01
15  1.4000000000000E-01  1.7280578765124E+00 -4.9059936484511E-01  2.2307141603704E-01
16  1.5000000000000E-01  1.7787833001040E+00 -4.1665031884831E-01  2.3619773198535E-01
17  1.6000000000000E-01  1.8194480102331E+00 -3.3251713216052E-01  2.4838965292994E-01
18  1.7000000000000E-01  1.8505942550675E+00 -2.4041173164876E-01  2.5952211625195E-01
19  1.8000000000000E-01  1.8728347704612E+00 -1.4265502300991E-01  2.6947820005361E-01
20  1.9000000000000E-01  1.8868243310591E+00 -4.1594294444088E-02  2.7815369902036E-01
21  2.0000000000000E-01  1.8932314590653E+00  6.0478578324892E-02  2.8546166154708E-01
22  2.1000000000000E-01  1.8927113341274E+00  1.6140519641884E-01  2.9133674262390E-01
23  2.2000000000000E-01  1.8858808933649E+00  2.5923219207718E-01  2.9573922934532E-01
24  2.3000000000000E-01  1.8732970203656E+00  3.5227374284385E-01  2.9865860275290E-01
25  2.4000000000000E-01  1.8554385993206E+00  4.3916285573851E-01  3.0011651085103E-01
26  2.5000000000000E-01  1.8326930598788E+00  5.1888964972184E-01  3.0016904271844E-01
27  2.6000000000000E-01  1.8053478652898E+00  5.9082534596414E-01  2.9890821222185E-01
28  2.7000000000000E-01  1.7735872073024E+00  6.5473120212688E-01  2.9646258136051E-01
29  2.8000000000000E-01  1.7374939729962E+00  7.1075217998116E-01  2.9299697707889E-01
30  2.9000000000000E-01  1.6970568484933E+00  7.5939569516121E-01  2.8871128075344E-01
31  3.0000000000000E-01  1.6521822296195E+00  8.0149634347872E-01  2.8383829571937E-01
32  3.1000000000000E-01  1.6027104271710E+00  8.3816801025000E-01  2.7864072435690E-01
33  3.2000000000000E-01  1.5484354911435E+00  8.7074522905067E-01  2.7340731161260E-01
34  3.3000000000000E-01  1.4891278400437E+00  9.0071604761337E-01  2.6844823562162E-01
35  3.4000000000000E-01  1.4245587732646E+00  9.2964896715693E-01  2.6408984760563E-01
36  3.5000000000000E-01  1.3545258704062E+00  9.5911673619503E-01  2.6066888180553E-01
37  3.6000000000000E-01  1.2788782440639E+00  9.9061989318360E-01  2.5852627131558E-01
38  3.7000000000000E-01  1.1975406133388E+00  1.0255129602292E+00  2.5800071687684E-01
39  3.8000000000000E-01  1.1105352041347E+00  1.0649360923796E+00  2.5942216264179E-01
40  3.9000000000000E-01  1.0180005577693E+00  1.1097547874095E+00  2.6310533545449E-01
41  4.0000000000000E-01  9.2020643880947E-01  1.1605099668893E+00  2.6934350225012E-01
42  4.1000000000000E-01  8.1756417235229E-01  1.2173803614590E+00  2.7840259385391E-01
43  4.2000000000000E-01  7.1063190516100E-01  1.2801586854443E+00  2.9051583297539E-01
44  4.3000000000000E-01  6.0011446815754E-01  1.3482425845616E+00  3.0587898989710E-01
45  4.4000000000000E-01  4.8685771312361E-01  1.4206408036975E+00  3.2464637171268E-01
46  4.5000000000000E-01  3.7183739698475E-01  1.4959944691209E+00  3.4692763053970E-01
47  4.6000000000000E-01  2.5614288548189E-01  1.5726128309847E+00  3.7278545356004E-01
48  4.7000000000000E-01  1.4095613719336E-01  1.6485222874337E+00  4.0223417372916E-01
49  4.8000000000000E-01  2.7526601920793E-02  1.7215270299669E+00  4.3523931528443E-01
50  4.9000000000000E-01 -8.2857181832036E-02  1.7892792281847E+00  4.7171806352459E-01
51  5.0000000000000E-01 -1.8889838259022E-01  1.8493563257430E+00  5.1154062447078E-01
52  5.1000000000000E-01 -2.8932406632121E-01  1.8993427605336E+00  5.5453241766182E-01
53  5.2000000000000E-01 -3.8291772752230E-01  1.9369132598554E+00  6.0047702513673E-01
54  5.3000000000000E-01 -4.6855108875185E-01  1.9599148011445E+00  6.4911980219003E-01
55  5.4000000000000E-01 -5.4521411598893E-01  1.9664443725126E+00  7.0017204123525E-01
56  5.5000000000000E-01 -6.1204225381817E-01  1.9549198128605E+00  7.5331556945278E-01
57  5.6000000000000E-01 -6.6833997591430E-01  1.9241412530398E+00  8.0820765408601E-01
58  5.7000000000000E-01 -7.1359986921736E-01  1.8733410082491E+00  8.6448608641713E-01
59  5.8000000000000E-01 -7.4751662002012E-01  1.8022201753189E+00  9.2177431660151E-01
60  5.9000000000000E-01 -7.6999544144145E-01  1.7109706518261E+00  9.7968651654534E-01
61  6.0000000000000E-01 -7.8115466820885E-01  1.6002818001102E+00  1.0378324566300E+00
62  6.1000000000000E-01 -7.8132243956976E-01  1.4713315097694E+00  1.0958220939610E+00
63  6.2000000000000E-01 -7.7102758750067E-01  1.3257619479173E+00  1.1532697844947E+00
64  6.3000000000000E-01 -7.5098503817471E-01  1.1656408081201E+00  1.2097980483341E+00
65  6.4000000000000E-01 -7.2207621315501E-01  9.9340935796817E-01  1.2650408360825E+00
66  6.5000000000000E-01 -6.8532507674917E-01  8.1181902440756E-01  1.3186462637515E+00
67  6.6000000000000E-01 -6.4187061190919E-01  6.2385863007667E-01  1.3702788036734E+00
68  6.7000000000000E-01 -5.9293661440779E-01  4.3267469020761E-01  1.4196209384883E+00
69  6.8000000000000E-01 -5.3979977030142E-01  2.4148738846405E-01  1.4663743039196E+00
70  6.9000000000000E-01 -4.8375702263474E-01  5.3504964955450E-02  1.5102603631048E+00
71  7.0000000000000E-01 -4.2609323897715E-01 -1.2816073229756E-01  1.5510206701680E+00
72  7.1000000000000E-01 -3.6805016203791E-01 -3.0057485928886E-01  1.5884167930283E+00
73  7.2000000000000E-01 -3.1079756289050E-01 -4.6105384825146E-01  1.6222299747624E+00
74  7.3000000000000E-01 -2.5540742307097E-01 -6.0723109155366E-01  1.6522606189020E+00
75  7.4000000000000E-01 -2.0283185188364E-01 -7.3711211701060E-01  1.6783276866774E+00
76  7.5000000000000E-01 -1.5388530349317E-01 -8.4911772347946E-01  1.7002680933716E+00
77  7.6000000000000E-01 -1.0923150032703E-01 -9.4211398042638E-01  1.7179361866842E+00
78  7.7000000000000E-01 -6.9375301030082E-02 -1.0154284590545E+00  1.7312033824987E+00
79  7.8000000000000E-01 -3.4659579017403E-02 -1.0688525382453E+00  1.7399580229729E+00
80  7.9000000000000E-01 -5.2670079142659E-03 -1.1026300985157E+00  1.7441055088137E+00
81  8.0000000000000E-01  1.8773511036007E-02 -1.1174333645696E+00  1.7435687423956E+00
82  8.1000000000000E-01  3.7576191482041E-02 -1.1143270660634E+00  1.7382889015696E+00
83  8.2000000000000E-01  5.1384014008482E-02 -1.0947224430219E+00  1.7282265461480E+00
84  8.3000000000000E-01  6.0551331651394E-02 -1.0603229152527E+00  1.7133630407439E+00
85  8.4000000000000E-01  6.5524150564669E-02 -1.0130634551670E+00  1.6937022595097E+00
86  8.5000000000000E-01  6.6818856596426E-02 -9.5504584461044E-01  1.6692725209546E+00
87  8.6000000000000E-01  6.5000178032548E-02 -8.8847205583078E-01  1.6401286850214E+00
88  8.7000000000000E-01  6.0659164917097E-02 -8.1557797488944E-01  1.6063543305026E+00
89  8.8000000000000E-01  5.4391927548356E-02 -7.3856958616016E-01  1.5680639191604E+00
90  8.9000000000000E-01  4.6779813395906E-02 -6.5956356539771E-01  1.5254048440126E+00
91  9.0000000000000E-01  3.8371616150376E-02 -5.8053399516573E-01  1.4785592534759E+00
92  9.1000000000000E-01  2.9668307029854E-02 -5.0326663127519E-01  1.4277455406931E+00
93  9.2000000000000E-01  2.1110661546558E-02 -4.2932182506850E-01  1.3732193885519E+00
94  9.3000000000000E-01  1.3070029764659E-02 -3.6000685768717E-01  1.3152742657087E+00
95  9.4000000000000E-01  5.8423699276600E-03 -2.9635808326867E-01  1.2542412773318E+00
96  9.5000000000000E-01 -3.5446066015349E-04 -2.3913292240185E-01  1.1904882861565E+00
97  9.6000000000000E-01 -5.3802825344098E-03 -1.8881140865504E-01  1.1244182346182E+00
98  9.7000000000000E-01 -9.1692712610437E-03 -1.4560668168706E-01  1.0564666170104E+00
99  9.8000000000000E-01 -1.1724059755177E-02 -1.0948355064499E-01  9.8709807149873E-01
100  9.9000000000000E-01 -1.3107664858025E-02 -8.0184029440105E-02  9.1680208499201E-01
101  1.0000000000000E+00 -1.3433691720364E-02 -5.7258576351721E-02  8.4608782896088E-01
102  1.0100000000000E+00 -1.2855303118811E-02 -4.0101657252267E-02  7.7547817080785E-01
103  1.0200000000000E+00 -1.1553453867528E-02 -2.7990194106977E-02  7.0550293290843E-01
104  1.0300000000000E+00 -9.7248842457473E-03 -2.0123455208237E-02  6.3669149950458E-01
105  1.0400000000000E+00 -7.5703431126890E-03 -1.5662985040200E-02  5.6956489980935E-01
106  1.0500000000000E+00 -5.2834744888448E-03 -1.3771250965406E-02  5.0462752352759E-01
107  1.0600000000000E+00 -3.0407548384778E-03 -1.3647790510474E-02  4.4235865219262E-01
108  1.0700000000000E+00 -9.9281688912630E-04 -1.4561764189778E-02  3.8320401589503E-01
109  1.0800000000000E+00  7.4255504283794E-04 -1.5879940182209E-02  3.2756760981388E-01
110  1.0900000000000E+00  2.0855182515638E-03 -1.7089244410698E-02  2.7580402834590E-01
111  1.1000000000000E+00  2.9971464734246E-03 -1.7813086494994E-02  2.2821159620863E-01
112  1.1100000000000E+00  3.4800952871688E-03 -1.7820704198390E-02  1.8502659573586E-01
113  1.1200000000000E+00  3.5767599605042E-03 -1.7028741210218E-02  1.4641890748259E-01
114  1.1300000000000E+00  3.3645114233352E-03 -1.5493716096112E-02  1.1248934680438E-01
115  1.1400000000000E+00  2.9492619577523E-03 -1.3398204173550E-02  8.3269473169073E-02
116  1.1500000000000E+00  2.3898622251007E-03 -1.0860214406772E-02  5.8705412576654E-02
117  1.1600000000000E+00  1.5715582686683E-03 -7.6089583263230E-03  3.8630551132654E-02
118  1.1700000000000E+00  7.6889860490258E-04 -4.4004512882654E-03  2.2937654465201E-02
119  1.1800000000000E+00  2.0372413296246E-04 -1.8973589853563E-03  1.1474793955970E-02
120  1.1900000000000E+00 -3.3890148405515E-05 -4.5471796931445E-04  4.0480408855804E-03
121  1.2000000000000E+00 -2.2140979556317E-05 -1.2061062782279E-05  4.6757193464757E-04
122  1.2100000000000E+00  2.1875634110835E-06 -1.1183390128728E-06 -2.8721242859395E-05
123  1.2200000000000E+00  2.3715599009499E-08  2.9982369967816E-08 -6.2895801523467E-07
124  1.23  0.  0.  0.
125  1.24  0.  0.  0.
126  1.25  0.  0.  0.
127  1.26  0.  0.  0.
128  1.27  0.  0.  0.
129  1.28  0.  0.  0.
130  1.29  0.  0.  0.
131  1.30  0.  0.  0.
132  1.31  0.  0.  0.
133  1.32  0.  0.  0.
134  1.33  0.  0.  0.
135  1.34  0.  0.  0.
136  1.35  0.  0.  0.
137  1.36  0.  0.  0.
138  1.37  0.  0.  0.
139  1.38  0.  0.  0.
140  1.39  0.  0.  0.
141  1.40  0.  0.  0.
142  1.41  0.  0.  0.
143  1.42  0.  0.  0.
144  1.43  0.  0.  0.
145  1.44  0.  0.  0.
146  1.45  0.  0.  0.
147  1.46  0.  0.  0.
148  1.47  0.  0.  0.
149  1.48  0.  0.  0.
150  1.49  0.  0.  0.
151  1.50  0.  0.  0.
152  1.51  0.  0.  0.
153  1.52  0.  0.  0.
154  1.53  0.  0.  0.
155  1.54  0.  0.  0.
156  1.55  0.  0.  0.
157  1.56  0.  0.  0.
158  1.57  0.  0.  0.
159  1.58  0.  0.  0.
160  1.59  0.  0.  0.
161  1.60  0.  0.  0.
162  1.61  0.  0.  0.
163  1.62  0.  0.  0.
164  1.63  0.  0.  0.
165  1.64  0.  0.  0.
166  1.65  0.  0.  0.
167  1.66  0.  0.  0.
168  1.67  0.  0.  0.
169  1.68  0.  0.  0.
170  1.69  0.  0.  0.
171  1.70  0.  0.  0.
172  1.71  0.  0.  0.
173  1.72  0.  0.  0.
174  1.73  0.  0.  0.
175  1.74  0.  0.  0.
176  1.75  0.  0.  0.
177  1.76  0.  0.  0.
178  1.77  0.  0.  0.
179  1.78  0.  0.  0.
180  1.79  0.  0.  0.
181  1.80  0.  0.  0.
182  1.81  0.  0.  0.
183  1.82  0.  0.  0.
184  1.83  0.  0.  0.
185  1.84  0.  0.  0.
186  1.85  0.  0.  0.
187  1.86  0.  0.  0.
188  1.87  0.  0.  0.
189  1.88  0.  0.  0.
190  1.89  0.  0.  0.
191  1.90  0.  0.  0.
192  1.91  0.  0.  0.
193  1.92  0.  0.  0.
194  1.93  0.  0.  0.
195  1.94  0.  0.  0.
196  1.95  0.  0.  0.
197  1.96  0.  0.  0.
198  1.97  0.  0.  0.
199  1.98  0.  0.  0.
200  1.99  0.  0.  0.
201  2.00  0.  0.  0.
202  2.01  0.  0.  0.
203  2.02  0.  0.  0.
204  2.03  0.  0.  0.
205  2.04  0.  0.  0.
206  2.05  0.  0.  0.
207  2.06  0.  0.  0.
208  2.07  0.  0.  0.
209  2.08  0.  0.  0.
210  2.09  0.  0.  0.
211  2.10  0.  0.  0.
212  2.11  0.  0.  0.
213  2.12  0.  0.  0.
214  2.13  0.  0.  0.
215  2.14  0.  0.  0.
216  2.15  0.  0.  0.
217  2.16  0.  0.  0.
218  2.17  0.  0.  0.
219  2.18  0.  0.  0.
220  2.19  0.  0.  0.
221  2.20  0.  0.  0.
222  2.21  0.  0.  0.
223  2.22  0.  0.  0.
224  2.23  0.  0.  0.
225  2.24  0.  0.  0.
226  2.25  0.  0.  0.
227  2.26  0.  0.  0.
228  2.27  0.  0.  0.
229  2.28  0.  0.  0.
230  2.29  0.  0.  0.
231  2.30  0.  0.  0.
232  2.31  0.  0.  0.
233  2.32  0.  0.  0.
234  2.33  0.  0.  0.
235  2.34  0.  0.  0.
236  2.35  0.  0.  0.
237  2.36  0.  0.  0.
238  2.37  0.  0.  0.
239  2.38  0.  0.  0.
240  2.39  0.  0.  0.
241  2.40  0.  0.  0.
242  2.41  0.  0.  0.
243  2.42  0.  0.  0.
244  2.43  0.  0.  0.
245  2.44  0.  0.  0.
246  2.45  0.  0.  0.
247  2.46  0.  0.  0.
248  2.47  0.  0.  0.
249  2.48  0.  0.  0.
250  2.49  0.  0.  0.
251  2.50  0.  0.  0.
252  2.51  0.  0.  0.
253  2.52  0.  0.  0.
254  2.53  0.  0.  0.
255  2.54  0.  0.  0.
256  2.55  0.  0.  0.
257  2.56  0.  0.  0.
258  2.57  0.  0.  0.
259  2.58  0.  0.  0.
260  2.59  0.  0.  0.
261  2.60  0.  0.  0.
262  2.61  0.  0.  0.
263  2.62  0.  0.  0.
264  2.63  0.  0.  0.
265  2.64  0.  0.  0.
266  2.65  0.  0.  0.
267  2.66  0.  0.  0.
268  2.67  0.  0.  0.
269  2.68  0.  0.  0.
270  2.69  0.  0.  0.
271  2.70  0.  0.  0.
272  2.71  0.  0.  0.
273  2.72  0.  0.  0.
274  2.73  0.  0.  0.
275  2.74  0.  0.  0.
276  2.75  0.  0.  0.
277  2.76  0.  0.  0.
278  2.77  0.  0.  0.
279  2.78  0.  0.  0.
280  2.79  0.  0.  0.
281  2.80  0.  0.  0.
282  2.81  0.  0.  0.
283  2.82  0.  0.  0.
284  2.83  0.  0.  0.
285  2.84  0.  0.  0.
286  2.85  0.  0.  0.
287  2.86  0.  0.  0.
288  2.87  0.  0.  0.
289  2.88  0.  0.  0.
290  2.89  0.  0.  0.
291  2.90  0.  0.  0.
292  2.91  0.  0.  0.
293  2.92  0.  0.  0.
294  2.93  0.  0.  0.
295  2.94  0.  0.  0.
296  2.95  0.  0.  0.
297  2.96  0.  0.  0.
298  2.97  0.  0.  0.
299  2.98  0.  0.  0.
300  2.99  0.  0.  0.
301  3.00  0.  0.  0.
302  3.01  0.  0.  0.
303  3.02  0.  0.  0.
304  3.03  0.  0.  0.
305  3.04  0.  0.  0.
306  3.05  0.  0.  0.
307  3.06  0.  0.  0.
308  3.07  0.  0.  0.
309  3.08  0.  0.  0.
310  3.09  0.  0.  0.
311  3.10  0.  0.  0.
312  3.11  0.  0.  0.
313  3.12  0.  0.  0.
314  3.13  0.  0.  0.
315  3.14  0.  0.  0.
316  3.15  0.  0.  0.
317  3.16  0.  0.  0.
318  3.17  0.  0.  0.
319  3.18  0.  0.  0.
320  3.19  0.  0.  0.
321  3.20  0.  0.  0.
322  3.21  0.  0.  0.
323  3.22  0.  0.  0.
324  3.23  0.  0.  0.
325  3.24  0.  0.  0.
326  3.25  0.  0.  0.
327  3.26  0.  0.  0.
328  3.27  0.  0.  0.
329  3.28  0.  0.  0.
330  3.29  0.  0.  0.
331  3.30  0.  0.  0.
332  3.31  0.  0.  0.
333  3.32  0.  0.  0.
334  3.33  0.  0.  0.
335  3.34  0.  0.  0.
336  3.35  0.  0.  0.
337  3.36  0.  0.  0.
338  3.37  0.  0.  0.
339  3.38  0.  0.  0.
340  3.39  0.  0.  0.
341  3.40  0.  0.  0.
342  3.41  0.  0.  0.
343  3.42  0.  0.  0.
344  3.43  0.  0.  0.
345  3.44  0.  0.  0.
346  3.45  0.  0.  0.
347  3.46  0.  0.  0.
348  3.47  0.  0.  0.
349  3.48  0.  0.  0.
350  3.49  0.  0.  0.
351  3.50  0.  0.  0.
352  3.51  0.  0.  0.
353  3.52  0.  0.  0.
354  3.53  0.  0.  0.
355  3.54  0.  0.  0.
356  3.55  0.  0.  0.
357  3.56  0.  0.  0.
358  3.57  0.  0.  0.
359  3.58  0.  0.  0.
360  3.59  0.  0.  0.
361  3.60  0.  0.  0.
362  3.61  0.  0.  0.
363  3.62  0.  0.  0.
364  3.63  0.  0.  0.
365  3.64  0.  0.  0.
366  3.65  0.  0.  0.
367  3.66  0.  0.  0.
368  3.67  0.  0.  0.
369  3.68  0.  0.  0.
370  3.69  0.  0.  0.
371  3.70  0.  0.  0.
372  3.71  0.  0.  0.
373  3.72  0.  0.  0.
374  3.73  0.  0.  0.
375  3.74  0.  0.  0.
376  3.75  0.  0.  0.
377  3.76  0.  0.  0.
378  3.77  0.  0.  0.
379  3.78  0.  0.  0.
380  3.79  0.  0.  0.
381  3.80  0.  0.  0.
382  3.81  0.  0.  0.
383  3.82  0.  0.  0.
384  3.83  0.  0.  0.
385  3.84  0.  0.  0.
386  3.85  0.  0.  0.
387  3.86  0.  0.  0.
388  3.87  0.  0.  0.
389  3.88  0.  0.  0.
390  3.89  0.  0.  0.
391  3.90  0.  0.  0.
392  3.91  0.  0.  0.
393  3.92  0.  0.  0.
394  3.93  0.  0.  0.
395  3.94  0.  0.  0.
396  3.95  0.  0.  0.
397  3.96  0.  0.  0.
398  3.97  0.  0.  0.
399  3.98  0.  0.  0.
400  3.99  0.  0.  0.
401  4.00  0.  0.  0.
402  4.01  0.  0.  0.
403  4.02  0.  0.  0.
404  4.03  0.  0.  0.
405  4.04  0.  0.  0.
406  4.05  0.  0.  0.
407  4.06  0.  0.  0.
408  4.07  0.  0.  0.
409  4.08  0.  0.  0.
410  4.09  0.  0.  0.
411  4.10  0.  0.  0.
412  4.11  0.  0.  0.
413  4.12  0.  0.  0.
414  4.13  0.  0.  0.
415  4.14  0.  0.  0.
416  4.15  0.  0.  0.
417  4.16  0.  0.  0.
418  4.17  0.  0.  0.
419  4.18  0.  0.  0.
420  4.19  0.  0.  0.
421  4.20  0.  0.  0.
422  4.21  0.  0.  0.
423  4.22  0.  0.  0.
424  4.23  0.  0.  0.
425  4.24  0.  0.  0.
426  4.25  0.  0.  0.
427  4.26  0.  0.  0.
428  4.27  0.  0.  0.
429  4.28  0.  0.  0.
430  4.29  0.  0.  0.
431  4.30  0.  0.  0.
432  4.31  0.  0.  0.
433  4.32  0.  0.  0.
434  4.33  0.  0.  0.
435  4.34  0.  0.  0.
436  4.35  0.  0.  0.
437  4.36  0.  0.  0.
438  4.37  0.  0.  0.
439  4.38  0.  0.  0.
440  4.39  0.  0.  0.
441  4.40  0.  0.  0.
442  4.41  0.  0.  0.
443  4.42  0.  0.  0.
444  4.43  0.  0.  0.
445  4.44  0.  0.  0.
446  4.45  0.  0.  0.
447  4.46  0.  0.  0.
448  4.47  0.  0.  0.
449  4.48  0.  0.  0.
450  4.49  0.  0.  0.
451  4.50  0.  0.  0.
452  4.51  0.  0.  0.
453  4.52  0.  0.  0.
454  4.53  0.  0.  0.
455  4.54  0.  0.  0.
456  4.55  0.  0.  0.
457  4.56  0.  0.  0.
458  4.57  0.  0.  0.
459  4.58  0.  0.  0.
460  4.59  0.  0.  0.
461  4.60  0.  0.  0.
462  4.61  0.  0.  0.
463  4.62  0.  0.  0.
464  4.63  0.  0.  0.
465  4.64  0.  0.  0.
466  4.65  0.  0.  0.
467  4.66  0.  0.  0.
468  4.67  0.  0.  0.
469  4.68  0.  0.  0.
470  4.69  0.  0.  0.
471  4.70  0.  0.  0.
472  4.71  0.  0.  0.
473  4.72  0.  0.  0.
474  4.73  0.  0.  0.
475  4.74  0.  0.  0.
476  4.75  0.  0.  0.
477  4.76  0.  0.  0.
478  4.77  0.  0.  0.
479  4.78  0.  0.  0.
480  4.79  0.  0.  0.
481  4.80  0.  0.  0.
482  4.81  0.  0.  0.
483  4.82  0.  0.  0.
484  4.83  0.  0.  0.
485  4.84  0.  0.  0.
486  4.85  0.  0.  0.
487  4.86  0.  0.  0.
488  4.87  0.  0.  0.
489  4.88  0.  0.  0.
490  4.89  0.  0.  0.
491  4.90  0.  0.  0.
492  4.91  0.  0.  0.
493  4.92  0.  0.  0.
494  4.93  0.  0.  0.
495  4.94  0.  0.  0.
496  4.95  0.  0.  0.
497  4.96  0.  0.  0.
498  4.97  0.  0.  0.
499  4.98  0.  0.  0.
500  4.99  0.  0.  0.
501  5.00  0.  0.  0.
502  5.01  0.  0.  0.
503  5.02  0.  0.  0.
504  5.03  0.  0.  0.
505  5.04  0.  0.  0.
506  5.05  0.  0.  0.
507  5.06  0.  0.  0.
508  5.07  0.  0.  0.
509  5.08  0.  0.  0.
510  5.09  0.  0.  0.
511  5.10  0.  0.  0.
512  5.11  0.  0.  0.
513  5.12  0.  0.  0.
514  5.13  0.  0.  0.
515  5.14  0.  0.  0.
516  5.15  0.  0.  0.
517  5.16  0.  0.  0.
518  5.17  0.  0.  0.
519  5.18  0.  0.  0.
520  5.19  0.  0.  0.
521  5.20  0.  0.  0.
522  5.21  0.  0.  0.
523  5.22  0.  0.  0.
524  5.23  0.  0.  0.
525  5.24  0.  0.  0.
526  5.25  0.  0.  0.
527  5.26  0.  0.  0.
528  5.27  0.  0.  0.
529  5.28  0.  0.  0.
530  5.29  0.  0.  0.
531  5.30  0.  0.  0.
532  5.31  0.  0.  0.
533  5.32  0.  0.  0.
534  5.33  0.  0.  0.
535  5.34  0.  0.  0.
536  5.35  0.  0.  0.
537  5.36  0.  0.  0.
538  5.37  0.  0.  0.
539  5.38  0.  0.  0.
540  5.39  0.  0.  0.
541  5.40  0.  0.  0.
542  5.41  0.  0.  0.
543  5.42  0.  0.  0.
544  5.43  0.  0.  0.
545  5.44  0.  0.  0.
546  5.45  0.  0.  0.
547  5.46  0.  0.  0.
548  5.47  0.  0.  0.
549  5.48  0.  0.  0.
550  5.49  0.  0.  0.
551  5.50  0.  0.  0.
552  5.51  0.  0.  0.
553  5.52  0.  0.  0.
554  5.53  0.  0.  0.
555  5.54  0.  0.  0.
556  5.55  0.  0.  0.
557  5.56  0.  0.  0.
558  5.57  0.  0.  0.
559  5.58  0.  0.  0.
560  5.59  0.  0.  0.
561  5.60  0.  0.  0.
562  5.61  0.  0.  0.
563  5.62  0.  0.  0.
564  5.63  0.  0.  0.
565  5.64  0.  0.  0.
566  5.65  0.  0.  0.
567  5.66  0.  0.  0.
568  5.67  0.  0.  0.
569  5.68  0.  0.  0.
570  5.69  0.  0.  0.
571  5.70  0.  0.  0.
572  5.71  0.  0.  0.
573  5.72  0.  0.  0.
574  5.73  0.  0.  0.
575  5.74  0.  0.  0.
576  5.75  0.  0.  0.
577  5.76  0.  0.  0.
578  5.77  0.  0.  0.
579  5.78  0.  0.  0.
580  5.79  0.  0.  0.
581  5.80  0.  0.  0.
582  5.81  0.  0.  0.
583  5.82  0.  0.  0.
584  5.83  0.  0.  0.
585  5.84  0.  0.  0.
586  5.85  0.  0.  0.
587  5.86  0.  0.  0.
588  5.87  0.  0.  0.
589  5.88  0.  0.  0.
590  5.89  0.  0.  0.
591  5.90  0.  0.  0.
592  5.91  0.  0.  0.
593  5.92  0.  0.  0.
594  5.93  0.  0.  0.
595  5.94  0.  0.  0.
596  5.95  0.  0.  0.
597  5.96  0.  0.  0.
598  5.97  0.  0.  0.
599  5.98  0.  0.  0.
600  5.99  0.  0.  0.
1                         9.4161872487798E+00 -6.0339788081083E-01  3.6757801990193E-02
1  0.0000000000000E+00 -6.7434002826161E-10 -1.0870613936786E-08 -1.1169540348188E-08
2  1.0000000000000E-02  3.6115472993282E-03  7.9025902969591E-04 -3.9816039236707E-03
3  2.0000000000000E-02  1.4420080435039E-02  3.1576121718377E-03 -1.5868788009179E-02
4  3.0000000000000E-02  3.2347413539941E-02  7.0916533924804E-03 -3.5489325268607E-02
5  4.0000000000000E-02  5.7263705758396E-02  1.2574599544886E-02 -6.2558352211061E-02
6  5.0000000000000E-02  8.8988167564496E-02  1.9580656896421E-02 -9.6681622127327E-02
7  6.0000000000000E-02  1.2729005523230E-01  2.8075185606456E-02 -1.3736002169851E-01
8  7.0000000000000E-02  1.7188995852598E-01  3.8013711232461E-02 -1.8399531273441E-01
9  8.0000000000000E-02  2.2246138735206E-01  4.9340843212128E-02 -2.3589704967786E-01
10  9.0000000000000E-02  2.7863266324829E-01  6.1989168918390E-02 -2.9229061219552E-01
11  1.0000000000000E-01  3.3998912109434E-01  7.5878197967831E-02 -3.5232628074977E-01
12  1.1000000000000E-01  4.0607562526130E-01  9.0913434723710E-02 -4.1508927155484E-01
13  1.2000000000000E-01  4.7639940253762E-01  1.0698565720459E-01 -4.7961063585969E-01
14  1.3000000000000E-01  5.5043319157286E-01  1.2397047782156E-01 -5.4487891718524E-01
15  1.4000000000000E-01  6.2761870528879E-01  1.4172825555298E-01 -6.0985244913282E-01
16  1.5000000000000E-01  7.0737039876758E-01  1.6010442046102E-01 -6.7347216585423E-01
17  1.6000000000000E-01  7.8907953061482E-01  1.7893026008966E-01 -7.3467478744689E-01
18  1.7000000000000E-01  8.7211850080761E-01  1.9802420358372E-01 -7.9240623363990E-01
19  1.8000000000000E-01  9.5584544269687E-01  2.1719362373756E-01 -8.4563511141788E-01
20  1.9000000000000E-01  1.0396090412750E+00  2.3623716009605E-01 -8.9336611594746E-01
21  2.0000000000000E-01  1.1227535441997E+00  2.5494754822081E-01 -9.3465317957983E-01
22  2.1000000000000E-01  1.2046239265412E+00  2.7311492187288E-01 -9.6861220105190E-01
23  2.2000000000000E-01  1.2845711649682E+00  2.9053053674231E-01 -9.9443318652361E-01
24  2.3000000000000E-01  1.3619575722609E+00  3.0699084707356E-01 -1.0113916359778E+00
25  2.4000000000000E-01  1.4361621388202E+00  3.2230185067668E-01 -1.0188590129268E+00
26  2.5000000000000E-01  1.5065858243588E+00  3.3628360392652E-01 -1.0163121424479E+00
27  2.6000000000000E-01  1.5726567403720E+00  3.4877479693704E-01 -1.0033413923651E+00
28  2.7000000000000E-01  1.6338351623900E+00  3.5963727058552E-01 -9.7965750492583E-01
29  2.8000000000000E-01  1.6896183105203E+00  3.6876035180466E-01 -9.4509696152520E-01
30  2.9000000000000E-01  1.7395448374519E+00  3.7606488181566E-01 -8.9962578079639E-01
31  3.0000000000000E-01  1.7831989649574E+00  3.8150681389726E-01 -8.4334167051569E-01
32  3.1000000000000E-01  1.8202142129955E+00  3.8508026292032E-01 -7.7647447601800E-01
33  3.2000000000000E-01  1.8502766697659E+00  3.8681989815715E-01 -6.9938489185956E-01
34  3.3000000000000E-01  1.8731277564297E+00  3.8680258362059E-01 -6.1256142892052E-01
35  3.4000000000000E-01  1.8885664466132E+00  3.8514818611369E-01 -5.1661565558184E-01
36  3.5000000000000E-01  1.8964509081169E+00  3.8201948988571E-01 -4.1227575856225E-01
37  3.6000000000000E-01  1.8966995423407E+00  3.7762117781750E-01 -3.0037849594888E-01
38  3.7000000000000E-01  1.8892914056149E+00  3.7219786183878E-01 -1.8185964137379E-01
39  3.8000000000000E-01  1.8742660057385E+00  3.6603116919367E-01 -5.7743043629052E-02
40  3.9000000000000E-01  1.8517224763466E+00  3.5943591555376E-01  7.0871550258854E-02
41  4.0000000000000E-01  1.8218181410831E+00  3.5275542014055E-01  2.0282173888145E-01
42  4.1000000000000E-01  1.7847664887010E+00  3.4635604126897E-01  3.3689658864711E-01
43  4.2000000000000E-01  1.7408345889839E+00  3.4062103237956E-01  4.7185142984939E-01
44  4.3000000000000E-01  1.6903399875524E+00  3.3594383805131E-01  6.0642310969141E-01
45  4.4000000000000E-01  1.6336471250295E+00  3.3272096609151E-01  7.3934547669732E-01
46  4.5000000000000E-01  1.5711633325208E+00  3.3134458507552E-01  8.6936486630777E-01
47  4.6000000000000E-01  1.5033344607864E+00  3.3219500623558E-01  9.9525535699712E-01
48  4.7000000000000E-01  1.4306402047300E+00  3.3563321406151E-01  1.1158335700368E+00
49  4.8000000000000E-01  1.3535891878351E+00  3.4199361117317E-01  1.2299727940165E+00
50  4.9000000000000E-01  1.2727138728963E+00  3.5157713988069E-01  1.3366162273085E+00
51  5.0000000000000E-01  1.1885653658059E+00  3.6464493540813E-01  1.4347891475799E+00
52  5.1000000000000E-01  1.1017081783030E+00  3.8141265419484E-01  1.5236098369222E+00
53  5.2000000000000E-01  1.0127150135185E+00  4.0204560530117E-01  1.6022991137716E+00
54  5.3000000000000E-01  9.2216163495325E-01  4.2665479413982E-01  1.6701883480518E+00
55  5.4000000000000E-01  8.3062187532165E-01  4.5529396604299E-01  1.7267258633754E+00
56  5.5000000000000E-01  7.3866283662307E-01  4.8795771315818E-01  1.7714816590585E+00
57  5.6000000000000E-01  6.4684032703329E-01  5.2458068251204E-01  1.8041504145548E+00
58  5.7000000000000E-01  5.5569457390965E-01  5.6503789651258E-01  1.8245527690223E+00
59  5.8000000000000E-01  4.6574624556975E-01  6.0914617042509E-01  1.8326348984641E+00
60  5.9000000000000E-01  3.7749280771977E-01  6.5666658521401E-01  1.8284664416039E+00
61  6.0000000000000E-01  2.9140523366443E-01  7.0730794932931E-01  1.8122368527370E+00
62  6.1000000000000E-01  2.0792508090384E-01  7.6073116023497E-01  1.7842502847136E+00
63  6.2000000000000E-01  1.2746194057903E-01  8.1655435636724E-01  1.7449191274213E+00
64  6.3000000000000E-01  5.0391260612216E-02  8.7435873333099E-01  1.6947563462415E+00
65  6.4000000000000E-01 -2.2947461577731E-02  9.3369488495435E-01  1.6343667805892E+00
66  6.5000000000000E-01 -9.2252125124436E-02  9.9408952067260E-01  1.5644375745706E+00
67  6.6000000000000E-01 -1.5725912227902E-01  1.0550524058256E+00  1.4857279198257E+00
68  6.7000000000000E-01 -2.1774409981081E-01  1.1160833709202E+00  1.3990582947371E+00
69  6.8000000000000E-01 -2.7352240128958E-01  1.1766792396882E+00  1.3052993843846E+00
70  6.9000000000000E-01 -3.2444920720930E-01  1.2363405336859E+00  1.2053608620841E+00
71  7.0000000000000E-01 -3.7041939007780E-01  1.2945778229232E+00  1.1001802062634E+00
72  7.1000000000000E-01 -4.1136710110032E-01  1.3509176071675E+00  9.9071171614092E-01
73  7.2000000000000E-01 -4.4726510404121E-01  1.4049076305924E+00  8.7791587654627E-01
74  7.3000000000000E-01 -4.7812387038988E-01  1.4561215527349E+00  7.6274920671760E-01
75  7.4000000000000E-01 -5.0399044823103E-01  1.5041629205905E+00  6.4615471050937E-01
76  7.5000000000000E-01 -5.2494711538255E-01  1.5486684093778E+00  5.2905302667600E-01
77  7.6000000000000E-01 -5.4110982557356E-01  1.5893103222965E+00  4.1233435828929E-01
78  7.7000000000000E-01 -5.5262645484592E-01  1.6257983617224E+00  2.9685124043795E-01
79  7.8000000000000E-01 -5.5967485411936E-01  1.6578807050060E+00  1.8341218566596E-01
80  7.9000000000000E-01 -5.6246071309213E-01  1.6853444366893E+00  7.2776227602380E-02
81  8.0000000000000E-01 -5.6121524046295E-01  1.7080154049275E+00 -3.4351634631895E-02
82  8.1000000000000E-01 -5.5619266593913E-01  1.7257575826876E+00 -1.3732410501702E-01
83  8.2000000000000E-01 -5.4766757069091E-01  1.7384720234932E+00 -2.3555440054832E-01
84  8.3000000000000E-01 -5.3593205484324E-01  1.7460955068296E+00 -3.2851824328877E-01
85  8.4000000000000E-01 -5.2129275324941E-01  1.7485989696706E+00 -4.1575508566674E-01
86  8.5000000000000E-01 -5.0406771411458E-01  1.7459858179464E+00 -4.9686862813876E-01
87  8.6000000000000E-01 -4.8458315894937E-01  1.7382902052873E+00 -5.7152669408054E-01
88  8.7000000000000E-01 -4.6317014671557E-01  1.7255753563360E+00 -6.3946053031987E-01
89  8.8000000000000E-01 -4.4016116973396E-01  1.7079319987400E+00 -7.0046360324104E-01
90  8.9000000000000E-01 -4.1588671378409E-01  1.6854769521511E+00 -7.5438996007156E-01
91  9.0000000000000E-01 -3.9067181964806E-01  1.6583519048103E+00 -8.0115222307262E-01
92  9.1000000000000E-01 -3.6483268792664E-01  1.6267223893164E+00 -8.4071928117904E-01
93  9.2000000000000E-01 -3.3867337307127E-01  1.5907769497365E+00 -8.7311373948765E-01
94  9.3000000000000E-01 -3.1248261601416E-01  1.5507264731628E+00 -8.9840918218683E-01
95  9.4000000000000E-01 -2.8653086732651E-01  1.5068036409751E+00 -9.1672729935709E-01