Pu    ONCVPSP-4.0.1  r_core=   1.15370   1.20304   1.10639   1.18164
94.0000     34.0000      230615    zatom,zion,pspd
8      11   3     4   600     0    pspcod,pspxc,lmax,lloc,mmax,r2well
5.99000000  5.00000000  0.00000000    rchrg fchrg qchrg
3     3     3     2    nproj
3     1           extension_switch
4     4     3    nprojso
0                         3.8864099907815E+01  3.4455352372399E+00 -8.8330139706706E-01
1  0.0000000000000E+00 -6.4469518168409E-08  2.3998459386387E-07  3.4618128835762E-08
2  1.0000000000000E-02  1.6023862692073E-01 -8.9645872568037E-02  2.5208367607986E-02
3  2.0000000000000E-02  3.1933062259670E-01 -1.7735379501739E-01  5.0365950067182E-02
4  3.0000000000000E-02  4.7614598803624E-01 -2.6123557711789E-01  7.5417401730343E-02
5  4.0000000000000E-02  6.2958751410286E-01 -3.3950082991674E-01  1.0029849785907E-01
6  5.0000000000000E-02  7.7860600766707E-01 -4.1050163655132E-01  1.2493229032159E-01
7  6.0000000000000E-02  9.2221416450070E-01 -4.7277233062192E-01  1.4922595127847E-01
8  7.0000000000000E-02  1.0594987178475E+00 -5.2506304910251E-01  1.7306849139483E-01
9  8.0000000000000E-02  1.1896305560732E+00 -5.6636596675210E-01  1.9632950450004E-01
10  9.0000000000000E-02  1.3118725784316E+00 -5.9593340060504E-01  2.1885904982625E-01
11  1.0000000000000E-01  1.4255851417701E+00 -6.1328728520151E-01  2.4048873751787E-01
12  1.1000000000000E-01  1.5302290396078E+00 -6.1821984940167E-01  2.6103403470595E-01
13  1.2000000000000E-01  1.6253660449277E+00 -6.1078566082118E-01  2.8029775989138E-01
14  1.3000000000000E-01  1.7106571356592E+00 -5.9128553085197E-01  2.9807468452749E-01
15  1.4000000000000E-01  1.7858586037111E+00 -5.6024307893869E-01  3.1415711436185E-01
16  1.5000000000000E-01  1.8508163213025E+00 -5.1837502717281E-01  3.2834128102322E-01
17  1.6000000000000E-01  1.9054584993492E+00 -4.6655652456476E-01  3.4043433810299E-01
18  1.7000000000000E-01  1.9497873193957E+00 -4.0578297555948E-01  3.5026172694488E-01
19  1.8000000000000E-01  1.9838698512137E+00 -3.3712996258451E-01  3.5767465662587E-01
20  1.9000000000000E-01  2.0078286815438E+00 -2.6171290316809E-01  3.6255743098304E-01
21  2.0000000000000E-01  2.0218326750694E+00 -1.8064806655435E-01  3.6483435347825E-01
22  2.1000000000000E-01  2.0260882668272E+00 -9.5016493507749E-02  3.6447594831205E-01
23  2.2000000000000E-01  2.0208316468311E+00 -5.8322195576997E-03  3.6150425325973E-01
24  2.3000000000000E-01  2.0063221443650E+00  8.5983997833850E-02  3.5599696562391E-01
25  2.4000000000000E-01  1.9828370534130E+00  1.7962449560399E-01  3.4809025657257E-01
26  2.5000000000000E-01  1.9506680648219E+00  2.7440739828096E-01  3.3798010976955E-01
27  2.6000000000000E-01  1.9101193882003E+00  3.6978183368587E-01  3.2592208616631E-01
28  2.7000000000000E-01  1.8615075607205E+00  4.6532564269285E-01  3.1222946648642E-01
29  2.8000000000000E-01  1.8051628544918E+00  5.6073588078256E-01  2.9726977454313E-01
30  2.9000000000000E-01  1.7414321126426E+00  6.5581272223699E-01  2.8145973626519E-01
31  3.0000000000000E-01  1.6706827701164E+00  7.5043766500524E-01  2.6525877935348E-01
32  3.1000000000000E-01  1.5933077516342E+00  8.4454718369469E-01  2.4916122510560E-01
33  3.2000000000000E-01  1.5097308890412E+00  9.3810317945812E-01  2.3368736551483E-01
34  3.3000000000000E-01  1.4204124655560E+00  1.0310617203594E+00  2.1937365385694E-01
35  3.4000000000000E-01  1.3258544768596E+00  1.1233416479607E+00  2.0676226444672E-01
36  3.5000000000000E-01  1.2266051993966E+00  1.2147946417629E+00  1.9639029618580E-01
37  3.6000000000000E-01  1.1232626748645E+00  1.3051782818292E+00  1.8877890436125E-01
38  3.7000000000000E-01  1.0164767560622E+00  1.3941335332022E+00  1.8442264564700E-01
39  3.8000000000000E-01  9.0694941173063E-01  1.4811678980840E+00  1.8377931251297E-01
40  3.9000000000000E-01  7.9543305476723E-01  1.5656452501181E+00  1.8726051568577E-01
41  4.0000000000000E-01  6.8272673663889E-01  1.6467830886920E+00  1.9522324768136E-01
42  4.1000000000000E-01  5.6967013785765E-01  1.7236576410404E+00  2.0796262777026E-01
43  4.2000000000000E-01  4.5713537656393E-01  1.7952169085157E+00  2.2570599030668E-01
44  4.3000000000000E-01  3.4601675086420E-01  1.8603014141378E+00  2.4860843561404E-01
45  4.4000000000000E-01  2.3721862180311E-01  1.9176720752145E+00  2.7674991715872E-01
46  4.5000000000000E-01  1.3164172897514E-01  1.9660443110539E+00  3.1013389222061E-01
47  4.6000000000000E-01  3.0168306268623E-02  2.0041272145033E+00  3.4868751735442E-01
48  4.7000000000000E-01 -6.6353572064633E-02  2.0306663788301E+00  3.9226332622811E-01
49  4.8000000000000E-01 -1.5712593760991E-01  2.0444887883269E+00  4.4064228742923E-01
50  4.9000000000000E-01 -2.4141665919407E-01  2.0445480596931E+00  4.9353810485249E-01
51  5.0000000000000E-01 -3.1857444172681E-01  2.0299682671163E+00  5.5060259442819E-01
52  5.1000000000000E-01 -3.8804258361410E-01  2.0000845996810E+00  6.1143194905572E-01
53  5.2000000000000E-01 -4.4937101226807E-01  1.9544791851602E+00  6.7557368922285E-01
54  5.3000000000000E-01 -5.0222616421247E-01  1.8930105664454E+00  7.4253409016663E-01
55  5.4000000000000E-01 -5.4639834020898E-01  1.8158355302380E+00  8.1178587750652E-01
56  5.5000000000000E-01 -5.8180624439157E-01  1.7234222540689E+00  8.8277599169914E-01
57  5.6000000000000E-01 -6.0849850669229E-01  1.6165540469948E+00  9.5493323678724E-01
58  5.7000000000000E-01 -6.2665208649705E-01  1.4963232994740E+00  1.0276756498621E+00
59  5.8000000000000E-01 -6.3656755877195E-01  1.3641156157255E+00  1.1004174533357E+00
60  5.9000000000000E-01 -6.3866138794731E-01  1.2215844633763E+00  1.1725754812801E+00
61  6.0000000000000E-01 -6.3345539569557E-01  1.0706170262812E+00  1.2435750023780E+00
62  6.1000000000000E-01 -6.2156372258215E-01  9.1329227338443E-01  1.3128548940454E+00
63  6.2000000000000E-01 -6.0367766685903E-01  7.5183254661521E-01  1.3798721536375E+00
64  6.3000000000000E-01 -5.8054885329018E-01  5.8855021282764E-01  1.4441057620225E+00
65  6.4000000000000E-01 -5.5297123826191E-01  4.2579110936636E-01  1.5050599409877E+00
66  6.5000000000000E-01 -5.2176249259589E-01  2.6587663290863E-01  1.5622668679208E+00
67  6.6000000000000E-01 -4.8774531922931E-01  1.1104637235774E-01  1.6152889281412E+00
68  6.7000000000000E-01 -4.5172925878607E-01 -3.6596833015095E-02  1.6637205965810E+00
69  6.8000000000000E-01 -4.1449351235581E-01 -1.7513761816951E-01  1.7071900458880E+00
70  6.9000000000000E-01 -3.7677126858992E-01 -3.0289296263049E-01  1.7453605774099E+00
71  7.0000000000000E-01 -3.3923596330442E-01 -4.1844978398709E-01  1.7779319651059E+00
72  7.1000000000000E-01 -3.0248982654718E-01 -5.2069409723265E-01  1.8046417906938E+00
73  7.2000000000000E-01 -2.6705498750153E-01 -6.0883088804516E-01  1.8252668319580E+00
74  7.3000000000000E-01 -2.3336731497288E-01 -6.8239418176367E-01  1.8396245459892E+00
75  7.4000000000000E-01 -2.0177307417425E-01 -7.4124713860478E-01  1.8475746662445E+00
76  7.5000000000000E-01 -1.7252838278124E-01 -7.8557235625170E-01  1.8490209078286E+00
77  7.6000000000000E-01 -1.4580135445868E-01 -8.1585289999483E-01  1.8439127505120E+00
78  7.7000000000000E-01 -1.2167672975204E-01 -8.3284489550784E-01  1.8322472449076E+00
79  7.8000000000000E-01 -1.0016271555107E-01 -8.3754279864096E-01  1.8140707650872E+00
80  7.9000000000000E-01 -8.1199687968411E-02 -8.3113869051929E-01  1.7894806117917E+00
81  8.0000000000000E-01 -6.4670361607108E-02 -8.1497712684544E-01  1.7586263552080E+00
82  8.1000000000000E-01 -5.0410992327916E-02 -7.9050719211928E-01  1.7217107958194E+00
83  8.2000000000000E-01 -3.8223161635506E-02 -7.5923346932933E-01  1.6789904166511E+00
84  8.3000000000000E-01 -2.7885688832035E-02 -7.2266763296006E-01  1.6307752007012E+00
85  8.4000000000000E-01 -1.9166231626541E-02 -6.8228230970732E-01  1.5774276936154E+00
86  8.5000000000000E-01 -1.1832165781821E-02 -6.3946873126285E-01  1.5193612036781E+00
87  8.6000000000000E-01 -5.6603779145191E-03 -5.9549953309958E-01  1.4570370486929E+00
88  8.7000000000000E-01 -4.4566057034297E-04 -5.5149784020804E-01  1.3909607818914E+00
89  8.8000000000000E-01  3.9925373547063E-03 -5.0841353436887E-01  1.3216773560765E+00
90  8.9000000000000E-01  7.8051816053574E-03 -4.6700732767461E-01  1.2497652161016E+00
91  9.0000000000000E-01  1.1110648140574E-02 -4.2784298383586E-01  1.1758293437838E+00
92  9.1000000000000E-01  1.3993672172858E-02 -3.9128774222614E-01  1.1004933157144E+00
93  9.2000000000000E-01  1.6506207073652E-02 -3.5752071877921E-01  1.0243904724375E+00
94  9.3000000000000E-01  1.8670081011013E-02 -3.2654879061505E-01  9.4815433649561E-01
95  9.4000000000000E-01  2.0481276277467E-02 -2.9822922381881E-01  8.7240845636428E-01
96  9.5000000000000E-01  2.1915600083369E-02 -2.7229808023682E-01  7.9775589295473E-01
97  9.6000000000000E-01  2.2935466594980E-02 -2.4840324129178E-01  7.2476860495623E-01
98  9.7000000000000E-01  2.3497467921205E-02 -2.2614071382421E-01  6.5397702886164E-01
99  9.8000000000000E-01  2.3560375662466E-02 -2.0509273161072E-01  5.8586018926728E-01
100  9.9000000000000E-01  2.3093182806805E-02 -1.8486603038602E-01  5.2083671544844E-01
101  1.0000000000000E+00  2.2082765860114E-02 -1.6512854562798E-01  4.5925718189694E-01
102  1.0100000000000E+00  2.0540716081534E-02 -1.4564265013043E-01  4.0139823439603E-01
103  1.0200000000000E+00  1.8508853038040E-02 -1.2629289989809E-01  3.4745901027328E-01
104  1.0300000000000E+00  1.6062889396887E-02 -1.0710607779369E-01  2.9756041290693E-01
105  1.0400000000000E+00  1.3313658540240E-02 -8.8261098822369E-02  2.5174785770987E-01
106  1.0500000000000E+00  1.0405241590430E-02 -7.0086052334999E-02  2.0999817103993E-01
107  1.0600000000000E+00  7.5092333176520E-03 -5.3039288727046E-02  1.7223139607524E-01
108  1.0700000000000E+00  4.8142620065508E-03 -3.7670992744310E-02  1.3832834237022E-01
109  1.0800000000000E+00  2.5097301011878E-03 -2.4561132399887E-02  1.0815481220755E-01
110  1.0900000000000E+00  7.6254635385357E-04 -1.4228934646229E-02  8.1593542393013E-02
111  1.1000000000000E+00 -3.4123512379141E-04 -6.9203396133141E-03  5.8575786026310E-02
112  1.1100000000000E+00 -9.6500501636929E-04 -2.0210253064056E-03  3.9087283504110E-02
113  1.1200000000000E+00 -1.1138749825757E-03  6.0837594985550E-04  2.3339267961525E-02
114  1.1300000000000E+00 -8.6587703023054E-04  1.3323316453883E-03  1.1549846492450E-02
115  1.1400000000000E+00 -4.0993218995765E-04  8.3325035533480E-04  3.8489255688950E-03
116  1.1500000000000E+00 -4.6161319407425E-05  1.0717993323959E-04  3.2157615182945E-04
117  1.1600000000000E+00  1.4945871978285E-06 -3.6439058043222E-06 -8.9682324331267E-06
118  1.1700000000000E+00  3.0874127758302E-07 -6.9374128264531E-07 -2.3522737138164E-06
119  1.18  0.  0.  0.
120  1.19  0.  0.  0.
121  1.20  0.  0.  0.
122  1.21  0.  0.  0.
123  1.22  0.  0.  0.
124  1.23  0.  0.  0.
125  1.24  0.  0.  0.
126  1.25  0.  0.  0.
127  1.26  0.  0.  0.
128  1.27  0.  0.  0.
129  1.28  0.  0.  0.
130  1.29  0.  0.  0.
131  1.30  0.  0.  0.
132  1.31  0.  0.  0.
133  1.32  0.  0.  0.
134  1.33  0.  0.  0.
135  1.34  0.  0.  0.
136  1.35  0.  0.  0.
137  1.36  0.  0.  0.
138  1.37  0.  0.  0.
139  1.38  0.  0.  0.
140  1.39  0.  0.  0.
141  1.40  0.  0.  0.
142  1.41  0.  0.  0.
143  1.42  0.  0.  0.
144  1.43  0.  0.  0.
145  1.44  0.  0.  0.
146  1.45  0.  0.  0.
147  1.46  0.  0.  0.
148  1.47  0.  0.  0.
149  1.48  0.  0.  0.
150  1.49  0.  0.  0.
151  1.50  0.  0.  0.
152  1.51  0.  0.  0.
153  1.52  0.  0.  0.
154  1.53  0.  0.  0.
155  1.54  0.  0.  0.
156  1.55  0.  0.  0.
157  1.56  0.  0.  0.
158  1.57  0.  0.  0.
159  1.58  0.  0.  0.
160  1.59  0.  0.  0.
161  1.60  0.  0.  0.
162  1.61  0.  0.  0.
163  1.62  0.  0.  0.
164  1.63  0.  0.  0.
165  1.64  0.  0.  0.
166  1.65  0.  0.  0.
167  1.66  0.  0.  0.
168  1.67  0.  0.  0.
169  1.68  0.  0.  0.
170  1.69  0.  0.  0.
171  1.70  0.  0.  0.
172  1.71  0.  0.  0.
173  1.72  0.  0.  0.
174  1.73  0.  0.  0.
175  1.74  0.  0.  0.
176  1.75  0.  0.  0.
177  1.76  0.  0.  0.
178  1.77  0.  0.  0.
179  1.78  0.  0.  0.
180  1.79  0.  0.  0.
181  1.80  0.  0.  0.
182  1.81  0.  0.  0.
183  1.82  0.  0.  0.
184  1.83  0.  0.  0.
185  1.84  0.  0.  0.
186  1.85  0.  0.  0.
187  1.86  0.  0.  0.
188  1.87  0.  0.  0.
189  1.88  0.  0.  0.
190  1.89  0.  0.  0.
191  1.90  0.  0.  0.
192  1.91  0.  0.  0.
193  1.92  0.  0.  0.
194  1.93  0.  0.  0.
195  1.94  0.  0.  0.
196  1.95  0.  0.  0.
197  1.96  0.  0.  0.
198  1.97  0.  0.  0.
199  1.98  0.  0.  0.
200  1.99  0.  0.  0.
201  2.00  0.  0.  0.
202  2.01  0.  0.  0.
203  2.02  0.  0.  0.
204  2.03  0.  0.  0.
205  2.04  0.  0.  0.
206  2.05  0.  0.  0.
207  2.06  0.  0.  0.
208  2.07  0.  0.  0.
209  2.08  0.  0.  0.
210  2.09  0.  0.  0.
211  2.10  0.  0.  0.
212  2.11  0.  0.  0.
213  2.12  0.  0.  0.
214  2.13  0.  0.  0.
215  2.14  0.  0.  0.
216  2.15  0.  0.  0.
217  2.16  0.  0.  0.
218  2.17  0.  0.  0.
219  2.18  0.  0.  0.
220  2.19  0.  0.  0.
221  2.20  0.  0.  0.
222  2.21  0.  0.  0.
223  2.22  0.  0.  0.
224  2.23  0.  0.  0.
225  2.24  0.  0.  0.
226  2.25  0.  0.  0.
227  2.26  0.  0.  0.
228  2.27  0.  0.  0.
229  2.28  0.  0.  0.
230  2.29  0.  0.  0.
231  2.30  0.  0.  0.
232  2.31  0.  0.  0.
233  2.32  0.  0.  0.
234  2.33  0.  0.  0.
235  2.34  0.  0.  0.
236  2.35  0.  0.  0.
237  2.36  0.  0.  0.
238  2.37  0.  0.  0.
239  2.38  0.  0.  0.
240  2.39  0.  0.  0.
241  2.40  0.  0.  0.
242  2.41  0.  0.  0.
243  2.42  0.  0.  0.
244  2.43  0.  0.  0.
245  2.44  0.  0.  0.
246  2.45  0.  0.  0.
247  2.46  0.  0.  0.
248  2.47  0.  0.  0.
249  2.48  0.  0.  0.
250  2.49  0.  0.  0.
251  2.50  0.  0.  0.
252  2.51  0.  0.  0.
253  2.52  0.  0.  0.
254  2.53  0.  0.  0.
255  2.54  0.  0.  0.
256  2.55  0.  0.  0.
257  2.56  0.  0.  0.
258  2.57  0.  0.  0.
259  2.58  0.  0.  0.
260  2.59  0.  0.  0.
261  2.60  0.  0.  0.
262  2.61  0.  0.  0.
263  2.62  0.  0.  0.
264  2.63  0.  0.  0.
265  2.64  0.  0.  0.
266  2.65  0.  0.  0.
267  2.66  0.  0.  0.
268  2.67  0.  0.  0.
269  2.68  0.  0.  0.
270  2.69  0.  0.  0.
271  2.70  0.  0.  0.
272  2.71  0.  0.  0.
273  2.72  0.  0.  0.
274  2.73  0.  0.  0.
275  2.74  0.  0.  0.
276  2.75  0.  0.  0.
277  2.76  0.  0.  0.
278  2.77  0.  0.  0.
279  2.78  0.  0.  0.
280  2.79  0.  0.  0.
281  2.80  0.  0.  0.
282  2.81  0.  0.  0.
283  2.82  0.  0.  0.
284  2.83  0.  0.  0.
285  2.84  0.  0.  0.
286  2.85  0.  0.  0.
287  2.86  0.  0.  0.
288  2.87  0.  0.  0.
289  2.88  0.  0.  0.
290  2.89  0.  0.  0.
291  2.90  0.  0.  0.
292  2.91  0.  0.  0.
293  2.92  0.  0.  0.
294  2.93  0.  0.  0.
295  2.94  0.  0.  0.
296  2.95  0.  0.  0.
297  2.96  0.  0.  0.
298  2.97  0.  0.  0.
299  2.98  0.  0.  0.
300  2.99  0.  0.  0.
301  3.00  0.  0.  0.
302  3.01  0.  0.  0.
303  3.02  0.  0.  0.
304  3.03  0.  0.  0.
305  3.04  0.  0.  0.
306  3.05  0.  0.  0.
307  3.06  0.  0.  0.
308  3.07  0.  0.  0.
309  3.08  0.  0.  0.
310  3.09  0.  0.  0.
311  3.10  0.  0.  0.
312  3.11  0.  0.  0.
313  3.12  0.  0.  0.
314  3.13  0.  0.  0.
315  3.14  0.  0.  0.
316  3.15  0.  0.  0.
317  3.16  0.  0.  0.
318  3.17  0.  0.  0.
319  3.18  0.  0.  0.
320  3.19  0.  0.  0.
321  3.20  0.  0.  0.
322  3.21  0.  0.  0.
323  3.22  0.  0.  0.
324  3.23  0.  0.  0.
325  3.24  0.  0.  0.
326  3.25  0.  0.  0.
327  3.26  0.  0.  0.
328  3.27  0.  0.  0.
329  3.28  0.  0.  0.
330  3.29  0.  0.  0.
331  3.30  0.  0.  0.
332  3.31  0.  0.  0.
333  3.32  0.  0.  0.
334  3.33  0.  0.  0.
335  3.34  0.  0.  0.
336  3.35  0.  0.  0.
337  3.36  0.  0.  0.
338  3.37  0.  0.  0.
339  3.38  0.  0.  0.
340  3.39  0.  0.  0.
341  3.40  0.  0.  0.
342  3.41  0.  0.  0.
343  3.42  0.  0.  0.
344  3.43  0.  0.  0.
345  3.44  0.  0.  0.
346  3.45  0.  0.  0.
347  3.46  0.  0.  0.
348  3.47  0.  0.  0.
349  3.48  0.  0.  0.
350  3.49  0.  0.  0.
351  3.50  0.  0.  0.
352  3.51  0.  0.  0.
353  3.52  0.  0.  0.
354  3.53  0.  0.  0.
355  3.54  0.  0.  0.
356  3.55  0.  0.  0.
357  3.56  0.  0.  0.
358  3.57  0.  0.  0.
359  3.58  0.  0.  0.
360  3.59  0.  0.  0.
361  3.60  0.  0.  0.
362  3.61  0.  0.  0.
363  3.62  0.  0.  0.
364  3.63  0.  0.  0.
365  3.64  0.  0.  0.
366  3.65  0.  0.  0.
367  3.66  0.  0.  0.
368  3.67  0.  0.  0.
369  3.68  0.  0.  0.
370  3.69  0.  0.  0.
371  3.70  0.  0.  0.
372  3.71  0.  0.  0.
373  3.72  0.  0.  0.
374  3.73  0.  0.  0.
375  3.74  0.  0.  0.
376  3.75  0.  0.  0.
377  3.76  0.  0.  0.
378  3.77  0.  0.  0.
379  3.78  0.  0.  0.
380  3.79  0.  0.  0.
381  3.80  0.  0.  0.
382  3.81  0.  0.  0.
383  3.82  0.  0.  0.
384  3.83  0.  0.  0.
385  3.84  0.  0.  0.
386  3.85  0.  0.  0.
387  3.86  0.  0.  0.
388  3.87  0.  0.  0.
389  3.88  0.  0.  0.
390  3.89  0.  0.  0.
391  3.90  0.  0.  0.
392  3.91  0.  0.  0.
393  3.92  0.  0.  0.
394  3.93  0.  0.  0.
395  3.94  0.  0.  0.
396  3.95  0.  0.  0.
397  3.96  0.  0.  0.
398  3.97  0.  0.  0.
399  3.98  0.  0.  0.
400  3.99  0.  0.  0.
401  4.00  0.  0.  0.
402  4.01  0.  0.  0.
403  4.02  0.  0.  0.
404  4.03  0.  0.  0.
405  4.04  0.  0.  0.
406  4.05  0.  0.  0.
407  4.06  0.  0.  0.
408  4.07  0.  0.  0.
409  4.08  0.  0.  0.
410  4.09  0.  0.  0.
411  4.10  0.  0.  0.
412  4.11  0.  0.  0.
413  4.12  0.  0.  0.
414  4.13  0.  0.  0.
415  4.14  0.  0.  0.
416  4.15  0.  0.  0.
417  4.16  0.  0.  0.
418  4.17  0.  0.  0.
419  4.18  0.  0.  0.
420  4.19  0.  0.  0.
421  4.20  0.  0.  0.
422  4.21  0.  0.  0.
423  4.22  0.  0.  0.
424  4.23  0.  0.  0.
425  4.24  0.  0.  0.
426  4.25  0.  0.  0.
427  4.26  0.  0.  0.
428  4.27  0.  0.  0.
429  4.28  0.  0.  0.
430  4.29  0.  0.  0.
431  4.30  0.  0.  0.
432  4.31  0.  0.  0.
433  4.32  0.  0.  0.
434  4.33  0.  0.  0.
435  4.34  0.  0.  0.
436  4.35  0.  0.  0.
437  4.36  0.  0.  0.
438  4.37  0.  0.  0.
439  4.38  0.  0.  0.
440  4.39  0.  0.  0.
441  4.40  0.  0.  0.
442  4.41  0.  0.  0.
443  4.42  0.  0.  0.
444  4.43  0.  0.  0.
445  4.44  0.  0.  0.
446  4.45  0.  0.  0.
447  4.46  0.  0.  0.
448  4.47  0.  0.  0.
449  4.48  0.  0.  0.
450  4.49  0.  0.  0.
451  4.50  0.  0.  0.
452  4.51  0.  0.  0.
453  4.52  0.  0.  0.
454  4.53  0.  0.  0.
455  4.54  0.  0.  0.
456  4.55  0.  0.  0.
457  4.56  0.  0.  0.
458  4.57  0.  0.  0.
459  4.58  0.  0.  0.
460  4.59  0.  0.  0.
461  4.60  0.  0.  0.
462  4.61  0.  0.  0.
463  4.62  0.  0.  0.
464  4.63  0.  0.  0.
465  4.64  0.  0.  0.
466  4.65  0.  0.  0.
467  4.66  0.  0.  0.
468  4.67  0.  0.  0.
469  4.68  0.  0.  0.
470  4.69  0.  0.  0.
471  4.70  0.  0.  0.
472  4.71  0.  0.  0.
473  4.72  0.  0.  0.
474  4.73  0.  0.  0.
475  4.74  0.  0.  0.
476  4.75  0.  0.  0.
477  4.76  0.  0.  0.
478  4.77  0.  0.  0.
479  4.78  0.  0.  0.
480  4.79  0.  0.  0.
481  4.80  0.  0.  0.
482  4.81  0.  0.  0.
483  4.82  0.  0.  0.
484  4.83  0.  0.  0.
485  4.84  0.  0.  0.
486  4.85  0.  0.  0.
487  4.86  0.  0.  0.
488  4.87  0.  0.  0.
489  4.88  0.  0.  0.
490  4.89  0.  0.  0.
491  4.90  0.  0.  0.
492  4.91  0.  0.  0.
493  4.92  0.  0.  0.
494  4.93  0.  0.  0.
495  4.94  0.  0.  0.
496  4.95  0.  0.  0.
497  4.96  0.  0.  0.
498  4.97  0.  0.  0.
499  4.98  0.  0.  0.
500  4.99  0.  0.  0.
501  5.00  0.  0.  0.
502  5.01  0.  0.  0.
503  5.02  0.  0.  0.
504  5.03  0.  0.  0.
505  5.04  0.  0.  0.
506  5.05  0.  0.  0.
507  5.06  0.  0.  0.
508  5.07  0.  0.  0.
509  5.08  0.  0.  0.
510  5.09  0.  0.  0.
511  5.10  0.  0.  0.
512  5.11  0.  0.  0.
513  5.12  0.  0.  0.
514  5.13  0.  0.  0.
515  5.14  0.  0.  0.
516  5.15  0.  0.  0.
517  5.16  0.  0.  0.
518  5.17  0.  0.  0.
519  5.18  0.  0.  0.
520  5.19  0.  0.  0.
521  5.20  0.  0.  0.
522  5.21  0.  0.  0.
523  5.22  0.  0.  0.
524  5.23  0.  0.  0.
525  5.24  0.  0.  0.
526  5.25  0.  0.  0.
527  5.26  0.  0.  0.
528  5.27  0.  0.  0.
529  5.28  0.  0.  0.
530  5.29  0.  0.  0.
531  5.30  0.  0.  0.
532  5.31  0.  0.  0.
533  5.32  0.  0.  0.
534  5.33  0.  0.  0.
535  5.34  0.  0.  0.
536  5.35  0.  0.  0.
537  5.36  0.  0.  0.
538  5.37  0.  0.  0.
539  5.38  0.  0.  0.
540  5.39  0.  0.  0.
541  5.40  0.  0.  0.
542  5.41  0.  0.  0.
543  5.42  0.  0.  0.
544  5.43  0.  0.  0.
545  5.44  0.  0.  0.
546  5.45  0.  0.  0.
547  5.46  0.  0.  0.
548  5.47  0.  0.  0.
549  5.48  0.  0.  0.
550  5.49  0.  0.  0.
551  5.50  0.  0.  0.
552  5.51  0.  0.  0.
553  5.52  0.  0.  0.
554  5.53  0.  0.  0.
555  5.54  0.  0.  0.
556  5.55  0.  0.  0.
557  5.56  0.  0.  0.
558  5.57  0.  0.  0.
559  5.58  0.  0.  0.
560  5.59  0.  0.  0.
561  5.60  0.  0.  0.
562  5.61  0.  0.  0.
563  5.62  0.  0.  0.
564  5.63  0.  0.  0.
565  5.64  0.  0.  0.
566  5.65  0.  0.  0.
567  5.66  0.  0.  0.
568  5.67  0.  0.  0.
569  5.68  0.  0.  0.
570  5.69  0.  0.  0.
571  5.70  0.  0.  0.
572  5.71  0.  0.  0.
573  5.72  0.  0.  0.
574  5.73  0.  0.  0.
575  5.74  0.  0.  0.
576  5.75  0.  0.  0.
577  5.76  0.  0.  0.
578  5.77  0.  0.  0.
579  5.78  0.  0.  0.
580  5.79  0.  0.  0.
581  5.80  0.  0.  0.
582  5.81  0.  0.  0.
583  5.82  0.  0.  0.
584  5.83  0.  0.  0.
585  5.84  0.  0.  0.
586  5.85  0.  0.  0.
587  5.86  0.  0.  0.
588  5.87  0.  0.  0.
589  5.88  0.  0.  0.
590  5.89  0.  0.  0.
591  5.90  0.  0.  0.
592  5.91  0.  0.  0.
593  5.92  0.  0.  0.
594  5.93  0.  0.  0.
595  5.94  0.  0.  0.
596  5.95  0.  0.  0.
597  5.96  0.  0.  0.
598  5.97  0.  0.  0.
599  5.98  0.  0.  0.
600  5.99  0.  0.  0.
1                         8.7300989267332E+00 -3.4090559599424E-01 -9.1001351016469E-02
1  0.0000000000000E+00 -1.5060303559800E-09 -5.5761903192120E-08  8.2252380765799E-08
2  1.0000000000000E-02  3.6551157382087E-03  1.1655542059702E-03 -1.7090456555850E-05
3  2.0000000000000E-02  1.4593825911611E-02  4.6699402037199E-03 -1.0110273975559E-04
4  3.0000000000000E-02  3.2736353511749E-02  1.0535434141156E-02 -3.4870603262907E-04
5  4.0000000000000E-02  5.7950185423367E-02  1.8796221604488E-02 -9.1589236422805E-04
6  5.0000000000000E-02  9.0050750474832E-02  2.9494119481064E-02 -2.0104832259261E-03
7  6.0000000000000E-02  1.2880237875741E-01  4.2672849265866E-02 -3.8820153350342E-03
8  7.0000000000000E-02  1.7391955144606E-01  5.8371112997066E-02 -6.8093669535293E-03
9  8.0000000000000E-02  2.2506845186036E-01  7.6614778767942E-02 -1.1086568422075E-02
10  9.0000000000000E-02  2.8186882921994E-01  9.7408527274336E-02 -1.7007308011773E-02
11  1.0000000000000E-01  3.4389618636076E-01  1.2072734242918E-01 -2.4848694550761E-02
12  1.1000000000000E-01  4.1068430150824E-01  1.4650824646042E-01 -3.4854869836409E-02
13  1.2000000000000E-01  4.8172809200895E-01  1.7464268234561E-01 -4.7221075482973E-02
14  1.3000000000000E-01  5.5648682470272E-01  2.0496993368301E-01 -6.2078770136076E-02
15  1.4000000000000E-01  6.3438767341041E-01  2.3727194443812E-01 -7.9482364118590E-02
16  1.5000000000000E-01  7.1482961889802E-01  2.7126985924207E-01 -9.9398090440594E-02
17  1.6000000000000E-01  7.9718768077120E-01  3.0662255035574E-01 -1.2169546522226E-01
18  1.7000000000000E-01  8.8081746420699E-01  3.4292733181180E-01 -1.4614170905179E-01
19  1.8000000000000E-01  9.6505999742292E-01  3.7972298676473E-01 -1.7239940625561E-01
20  1.9000000000000E-01  1.0492468285223E+00  4.1649515321027E-01 -2.0002757456341E-01
21  2.0000000000000E-01  1.1327053430627E+00  4.5268402871992E-01 -2.2848620661631E-01
22  2.1000000000000E-01  1.2147642566063E+00  4.8769426957497E-01 -2.5714423082285E-01
23  2.2000000000000E-01  1.2947592298617E+00  5.2090687664158E-01 -2.8529072597316E-01
24  2.3000000000000E-01  1.3720385480553E+00  5.5169278242716E-01 -3.1214911550632E-01
25  2.4000000000000E-01  1.4459688010840E+00  5.7942778379123E-01 -3.3689396699964E-01
26  2.5000000000000E-01  1.5159404970158E+00  6.0350840530409E-01 -3.5866993366001E-01
27  2.6000000000000E-01  1.5813735387802E+00  6.2336823149026E-01 -3.7661230033291E-01
28  2.7000000000000E-01  1.6417224925680E+00  6.3849421399304E-01 -3.8986853932479E-01
29  2.8000000000000E-01  1.6964815766483E+00  6.4844244341453E-01 -3.9762024312493E-01
30  2.9000000000000E-01  1.7451893010539E+00  6.5285287606834E-01 -3.9910478326460E-01
31  3.0000000000000E-01  1.7874326919099E+00  6.5146252341374E-01 -3.9363604773735E-01
32  3.1000000000000E-01  1.8228510390368E+00  6.4411664623812E-01 -3.8062363361324E-01
33  3.2000000000000E-01  1.8511391117841E+00  6.3077754586031E-01 -3.5958991598442E-01
34  3.3000000000000E-01  1.8720497956987E+00  6.1153060933521E-01 -3.3018447779540E-01
35  3.4000000000000E-01  1.8853961114542E+00  5.8658734293284E-01 -2.9219546538528E-01
36  3.5000000000000E-01  1.8910525872475E+00  5.5628521567384E-01 -2.4555752910684E-01
37  3.6000000000000E-01  1.8889559663813E+00  5.2108422968202E-01 -1.9035611407691E-01
38  3.7000000000000E-01  1.8791052427276E+00  4.8156023352101E-01 -1.2682797946453E-01
39  3.8000000000000E-01  1.8615610279447E+00  4.3839509528999E-01 -5.5357941980925E-02
40  3.9000000000000E-01  1.8364442654035E+00  3.9236395074225E-01  2.3528043525632E-02
41  4.0000000000000E-01  1.8039343165018E+00  3.4431983476881E-01  1.0917324017179E-01
42  4.1000000000000E-01  1.7642664551184E+00  2.9517608910532E-01  2.0080359009821E-01
43  4.2000000000000E-01  1.7177288151487E+00  2.4588701216080E-01  2.9754385453387E-01
44  4.3000000000000E-01  1.6646588441297E+00  1.9742727587310E-01  3.9843592721572E-01
45  4.4000000000000E-01  1.6054393227188E+00  1.5077067734623E-01  5.0245875304097E-01
46  4.5000000000000E-01  1.5404940150850E+00  1.0686881811165E-01  6.0854924071696E-01
47  4.6000000000000E-01  1.4702830189971E+00  6.6630310159348E-02  7.1562353587603E-01
48  4.7000000000000E-01  1.3952978864865E+00  3.0901094996118E-02  8.2259802040362E-01
49  4.8000000000000E-01  1.3160565864222E+00  4.4643015325470E-04  9.2840942458536E-01
50  4.9000000000000E-01  1.2330983791967E+00 -2.4064952334230E-02  1.0320334803597E+00
51  5.0000000000000E-01  1.1469786710755E+00 -4.2074077412469E-02  1.1325016049898E+00
52  5.1000000000000E-01  1.0582639117512E+00 -5.3141991321745E-02  1.2289151826586E+00
53  5.2000000000000E-01  9.6752659343029E-01 -5.6956794403991E-02  1.3204571040561E+00
54  5.3000000000000E-01  8.7534040358576E-01 -5.3337279715518E-02  1.4064003276610E+00
55  5.4000000000000E-01  7.8227557656909E-01 -4.2233121880303E-02  1.4861133373708E+00
56  5.5000000000000E-01  6.8889448183561E-01 -2.3721669644122E-02  1.5590624854259E+00
57  5.6000000000000E-01  5.9574747887616E-01  1.9984971661698E-03  1.6248113230219E+00
58  5.7000000000000E-01  5.0336906131761E-01  3.4616983758190E-02  1.6830171294949E+00
59  5.8000000000000E-01  4.1227430531624E-01  7.3723614152303E-02  1.7334249504894E+00
60  5.9000000000000E-01  3.2295563055262E-01  1.1882264645602E-01  1.7758595424020E+00
61  6.0000000000000E-01  2.3587987605392E-01  1.6934866766449E-01  1.8102156913894E+00
62  6.1000000000000E-01  1.5148568789076E-01  2.2468361748695E-01  1.8364474276507E+00
63  6.2000000000000E-01  7.0181211652120E-02  2.8417436116908E-01  1.8545566875295E+00
64  6.3000000000000E-01 -7.6579204212967E-03  3.4715022182995E-01  1.8645819859615E+00
65  6.4000000000000E-01 -8.1690319631987E-02  4.1293989383507E-01  1.8665876494580E+00
66  6.5000000000000E-01 -1.5161030106154E-01  4.8088718984148E-01  1.8606541255387E+00
67  6.6000000000000E-01 -2.1714908620821E-01  5.5036512431456E-01  1.8468698295036E+00
68  6.7000000000000E-01 -2.7807575906860E-01  6.2078790378707E-01  1.8253249156623E+00
69  6.8000000000000E-01 -3.3419798457470E-01  6.9162047652469E-01  1.7961072703599E+00
70  6.9000000000000E-01 -3.8536249554215E-01  7.6238538866231E-01  1.7593009217020E+00
71  7.0000000000000E-01 -4.3145535112536E-01  8.3266679688500E-01  1.7149869497105E+00
72  7.1000000000000E-01 -4.7240196644662E-01  9.0211159564675E-01  1.6632468650034E+00
73  7.2000000000000E-01 -5.0816690981762E-01  9.7042772581076E-01  1.6041683085227E+00
74  7.3000000000000E-01 -5.3875346104927E-01  1.0373798374944E+00  1.5378528138975E+00
75  7.4000000000000E-01 -5.6420292198624E-01  1.1027825788809E+00  1.4644252722473E+00
76  7.5000000000000E-01 -5.8459366881861E-01  1.1664918711633E+00  1.3840446507682E+00
77  7.6000000000000E-01 -6.0003993510091E-01  1.2283946042789E+00  1.2969154451138E+00
78  7.7000000000000E-01 -6.1069031488941E-01  1.2883972458517E+00  1.2032992945380E+00
79  7.8000000000000E-01 -6.1672597709174E-01  1.3464138945556E+00  1.1035261604845E+00
80  7.9000000000000E-01 -6.1835858505135E-01  1.4023543273933E+00  9.9800446541213E-01
81  8.0000000000000E-01 -6.1582791955364E-01  1.4561125873783E+00  8.8722960985052E-01
82  8.1000000000000E-01 -6.0939920876932E-01  1.5075566338069E+00  7.7179033175225E-01
83  8.2000000000000E-01 -5.9936017502037E-01  1.5565195325489E+00  6.5237244190743E-01
84  8.3000000000000E-01 -5.8601781548124E-01  1.6027926001758E+00  5.2975956034034E-01
85  8.4000000000000E-01 -5.6969494178376E-01  1.6461208356550E+00  4.0483058810671E-01
86  8.5000000000000E-01 -5.5072651170430E-01  1.6862008798248E+00  2.7855377282744E-01
87  8.6000000000000E-01 -5.2945579436752E-01  1.7226816395598E+00  1.5197735998081E-01
88  8.7000000000000E-01 -5.0623041836898E-01  1.7551676045718E+00  2.6216960198254E-02
89  8.8000000000000E-01 -4.8139835955134E-01  1.7832247746108E+00 -9.7560100089034E-02
90  8.9000000000000E-01 -4.5530393151607E-01  1.8063890081219E+00 -2.1815304723657E-01
91  9.0000000000000E-01 -4.2828384697253E-01  1.8241765048715E+00 -3.3434803373552E-01
92  9.1000000000000E-01 -4.0066342139957E-01  1.8360960493139E+00 -4.4494000369770E-01
93  9.2000000000000E-01 -3.7275299193220E-01  1.8416625728964E+00 -5.4875536417357E-01
94  9.3000000000000E-01 -3.4484462364103E-01  1.8404115460774E+00 -6.4467473194378E-01
95  9.4000000000000E-01 -3.1720917224927E-01  1.8319136880503E+00 -7.3165501551294E-01
96  9.5000000000000E-01 -2.9009376669140E-01  1.8157894868743E+00 -8.0875012006470E-01
97  9.6000000000000E-01 -2.6371976668810E-01  1.7917230570660E+00 -8.7512963201670E-01
98  9.7000000000000E-01 -2.3828123967828E-01  1.7594749271181E+00 -9.3009495163957E-01
99  9.8000000000000E-01 -2.1394398807826E-01  1.7188934464300E+00 -9.7309249793262E-01