Pu    ONCVPSP-4.0.1  r_core=   1.15370   1.20304   1.10639   1.15370
94.0000     34.0000      220327    zatom,zion,pspd
8      11   3     4   600     0    pspcod,pspxc,lmax,lloc,mmax,r2well
5.99000000  5.00000000  0.00000000    rchrg fchrg qchrg
3     2     2     2     0    nproj
1     1           extension_switch
0                         3.8586282653352E+01  3.4416195560819E+00 -8.9147122325360E-01
1  0.0000000000000E+00 -6.3134656169694E-08  2.3473160315479E-07  3.3519626990719E-08
2  1.0000000000000E-02  1.6037819041751E-01 -8.9029235820881E-02  2.5415741024928E-02
3  2.0000000000000E-02  3.1961083466735E-01 -1.7613885231096E-01  5.0776161168014E-02
4  3.0000000000000E-02  4.7656884553172E-01 -2.5945818122599E-01  7.6021577786403E-02
5  4.0000000000000E-02  6.3015558767321E-01 -3.3721277293142E-01  1.0108381877698E-01
6  5.0000000000000E-02  7.7932195600666E-01 -4.0776836176097E-01  1.2588255378326E-01
7  6.0000000000000E-02  9.2308012523834E-01 -4.6967003796326E-01  1.5032229106033E-01
8  7.0000000000000E-02  1.0605156059854E+00 -5.2167531968607E-01  1.7429022045540E-01
9  8.0000000000000E-02  1.1907973060237E+00 -5.6278005317963E-01  1.9765504944181E-01
10  9.0000000000000E-02  1.3131853692800E+00 -5.9223634485975E-01  2.2026693964711E-01
11  1.0000000000000E-01  1.4270366472512E+00 -6.0956203416306E-01  2.4195860730925E-01
12  1.1000000000000E-01  1.5318077443223E+00 -6.1454153914658E-01  2.6254760421746E-01
13  1.2000000000000E-01  1.6270556665364E+00 -6.0721823474898E-01  2.8183974769276E-01
14  1.3000000000000E-01  1.7124361892339E+00 -5.8787884356122E-01  2.9963362082469E-01
15  1.4000000000000E-01  1.7877001392282E+00 -5.5703061817943E-01  3.1572601927579E-01
16  1.5000000000000E-01  1.8526878586430E+00 -5.1537236091689E-01  3.2991818016988E-01
17  1.6000000000000E-01  1.9073221773822E+00 -4.6376055028302E-01  3.4202259342743E-01
18  1.7000000000000E-01  1.9516002670848E+00 -4.0317201540644E-01  3.5187016772184E-01
19  1.8000000000000E-01  1.9855847795485E+00 -3.3466471272308E-01  3.5931750307703E-01
20  1.9000000000000E-01  2.0093946858421E+00 -2.5933820939392E-01  3.6425401078344E-01
21  2.0000000000000E-01  2.0231962281931E+00 -1.7829546317390E-01  3.6660861923118E-01
22  2.1000000000000E-01  2.0271943754878E+00 -9.2607409569272E-02  3.6635581156086E-01
23  2.2000000000000E-01  2.0216251357788E+00 -3.2817273772826E-03  3.6352075749070E-01
24  2.3000000000000E-01  2.0067490271680E+00  8.8763041121726E-02  3.5818332673137E-01
25  2.4000000000000E-01  1.9828459440063E+00  1.8271708099700E-01  3.5048080417895E-01
26  2.5000000000000E-01  1.9502115812377E+00  2.7789195138867E-01  3.4060916643207E-01
27  2.6000000000000E-01  1.9091554990148E+00  3.7372593799986E-01  3.2882282372429E-01
28  2.7000000000000E-01  1.8600008258105E+00  4.6978207966395E-01  3.1543277953038E-01
29  2.8000000000000E-01  1.8030855146823E+00  5.6573915606807E-01  3.0080321019647E-01
30  2.9000000000000E-01  1.7387649876185E+00  6.6137622982126E-01  2.8534651720191E-01
31  3.0000000000000E-01  1.6674159304061E+00  7.5655161690720E-01  2.6951695332714E-01
32  3.1000000000000E-01  1.5894409383027E+00  8.5117740358439E-01  2.5380296938410E-01
33  3.2000000000000E-01  1.5052736636456E+00  9.4519082489940E-01  2.3871846870328E-01
34  3.3000000000000E-01  1.4153840825808E+00  1.0385239618936E+00  2.2479319088036E-01
35  3.4000000000000E-01  1.3202834808763E+00  1.1310732953339E+00  2.1256247322569E-01
36  3.5000000000000E-01  1.2205287591847E+00  1.2226706698016E+00  2.0255665705654E-01
37  3.6000000000000E-01  1.1167256763038E+00  1.3130571723161E+00  1.9529041586138E-01
38  3.7000000000000E-01  1.0095306843633E+00  1.4018613160772E+00  1.9125228320107E-01
39  3.8000000000000E-01  8.9965106117590E-01  1.4885827467377E+00  1.9089465008076E-01
40  3.9000000000000E-01  7.8784311028203E-01  1.5725824626343E+00  1.9462448483191E-01
41  4.0000000000000E-01  6.7490827595175E-01  1.6530802705863E+00  2.0279500399866E-01
42  4.1000000000000E-01  5.6168710556936E-01  1.7291598960086E+00  2.1569849130854E-01
43  4.2000000000000E-01  4.4905108202376E-01  1.7997818423419E+00  2.3356042474177E-01
44  4.3000000000000E-01  3.3789244032795E-01  1.8638037632930E+00  2.5653503039730E-01
45  4.4000000000000E-01  2.2911217198078E-01  1.9200077855692E+00  2.8470233782052E-01
46  4.5000000000000E-01  1.2360650390431E-01  1.9671339129876E+00  3.1806676630738E-01
47  4.6000000000000E-01  2.2252212689403E-02  2.0039183676751E+00  3.5655722704527E-01
48  4.7000000000000E-01 -7.4108803735933E-02  2.0291354919212E+00  4.0002868334773E-01
49  4.8000000000000E-01 -1.6468522867580E-01  2.0416416548757E+00  4.4826507214207E-01
50  4.9000000000000E-01 -2.4875180608496E-01  2.0404194892598E+00  5.0098345554904E-01
51  5.0000000000000E-01 -3.2566408897305E-01  2.0246207299201E+00  5.5783924293558E-01
52  5.1000000000000E-01 -3.9487195765252E-01  1.9936059409589E+00  6.1843230204081E-01
53  5.2000000000000E-01 -4.5593143650414E-01  1.9469795012635E+00  6.8231376322573E-01
54  5.3000000000000E-01 -5.0851438396643E-01  1.8846183666737E+00  7.4899331383254E-01
55  5.4000000000000E-01 -5.5241569311114E-01  1.8066933353270E+00  8.1794678002315E-01
56  5.5000000000000E-01 -5.8755771718202E-01  1.7136818030042E+00  8.8862380097014E-01
57  5.6000000000000E-01 -6.1399172301354E-01  1.6063712976040E+00  9.6045541429915E-01
58  5.7000000000000E-01 -6.3189627200937E-01  1.4858534145125E+00  1.0328613913958E+00
59  5.8000000000000E-01 -6.4157252971384E-01  1.3535081246947E+00  1.1052571855510E+00
60  5.9000000000000E-01 -6.4343660712846E-01  1.2109787811746E+00  1.1770603837319E+00
61  6.0000000000000E-01 -6.3800913595972E-01  1.0601384934271E+00  1.2476965827416E+00
62  6.1000000000000E-01 -6.2590237218585E-01  9.0304885964305E-01  1.3166046413089E+00
63  6.2000000000000E-01 -6.0780520423526E-01  7.4191233140937E-01  1.3832412899097E+00
64  6.3000000000000E-01 -5.8446651060574E-01  5.7901972300880E-01  1.4470851085719E+00
65  6.4000000000000E-01 -5.5667736438871E-01  4.1669455915226E-01  1.5076399084069E+00
66  6.5000000000000E-01 -5.2525261697849E-01  2.5723607355968E-01  1.5644375741324E+00
67  6.6000000000000E-01 -4.9101240903634E-01  1.0286272201393E-01  1.6170404416069E+00
68  6.7000000000000E-01 -4.5476415307358E-01 -4.4341944433635E-02  1.6650432958055E+00
69  6.8000000000000E-01 -4.1728550911510E-01 -1.8247928650807E-01  1.7080750804049E+00
70  6.9000000000000E-01 -3.7930883383204E-01 -3.0987985499584E-01  1.7458004101378E+00
71  7.0000000000000E-01 -3.4150752603289E-01 -4.2514054012331E-01  1.7779209715113E+00
72  7.1000000000000E-01 -3.0448461981037E-01 -5.2715345067007E-01  1.8041768867727E+00
73  7.2000000000000E-01 -2.6876389384110E-01 -6.1512567981436E-01  1.8243481008094E+00
74  7.3000000000000E-01 -2.3478367457037E-01 -6.8858944096962E-01  1.8382558317968E+00
75  7.4000000000000E-01 -2.0289341582921E-01 -7.4740239828463E-01  1.8457641048520E+00
76  7.5000000000000E-01 -1.7335304144463E-01 -7.9173835999462E-01  1.8467813647948E+00
77  7.6000000000000E-01 -1.4633494422522E-01 -8.2206883541473E-01  1.8412621404840E+00
78  7.7000000000000E-01 -1.2192844775362E-01 -8.3913626569955E-01  1.8292087102625E+00
79  7.8000000000000E-01 -1.0014645979343E-01 -8.4392001335189E-01  1.8106726968909E+00
80  7.9000000000000E-01 -8.0933980483416E-02 -8.3759642621009E-01  1.7857565020189E+00
81  8.0000000000000E-01 -6.4178076979603E-02 -8.2149447053627E-01  1.7546144756309E+00
82  8.1000000000000E-01 -4.9718900323332E-02 -7.9704854938982E-01  1.7174537057495E+00
83  8.2000000000000E-01 -3.7361300919414E-02 -7.6575018355649E-01  1.6745343085556E+00
84  8.3000000000000E-01 -2.6886596281205E-02 -7.2910023223449E-01  1.6261690993419E+00
85  8.4000000000000E-01 -1.8064058154369E-02 -6.8856327117125E-01  1.5727225305306E+00
86  8.5000000000000E-01 -1.0661714667313E-02 -6.4552563094962E-01  1.5146087943000E+00
87  8.6000000000000E-01 -4.4561051197272E-03 -6.0125843360256E-01  1.4522890039725E+00
88  8.7000000000000E-01  7.5932169111147E-04 -5.5688675928481E-01  1.3862673898047E+00
89  8.8000000000000E-01  5.1674125403865E-03 -5.1336583520451E-01  1.3170864706822E+00
90  8.9000000000000E-01  8.9222967805283E-03 -4.7146487601545E-01  1.2453211928195E+00
91  9.0000000000000E-01  1.2146261920249E-02 -4.3175892829365E-01  1.1715720592198E+00
92  9.1000000000000E-01  1.4928551660449E-02 -3.9462879119129E-01  1.0964573086601E+00
93  9.2000000000000E-01  1.7326049093717E-02 -3.6026880977385E-01  1.0206042396623E+00
94  9.3000000000000E-01  1.9365740274694E-02 -3.2870207457238E-01  9.4463981268866E-01
95  9.4000000000000E-01  2.1048791178192E-02 -2.9980231653336E-01  8.6918070216981E-01
96  9.5000000000000E-01  2.2356015262687E-02 -2.7332156485662E-01  7.9482300858672E-01
97  9.6000000000000E-01  2.3254459898965E-02 -2.4892243794272E-01  7.2213187950028E-01
98  9.7000000000000E-01  2.3704797559087E-02 -2.2621376405488E-01  6.5163132718979E-01
99  9.8000000000000E-01  2.3669170975760E-02 -2.0478807519481E-01  5.8379456961228E-01
100  9.9000000000000E-01  2.3119108809954E-02 -1.8425937920005E-01  5.1903526118870E-01
101  1.0000000000000E+00  2.2043097430558E-02 -1.6429948313684E-01  4.5770002104249E-01
102  1.0100000000000E+00  2.0453362243123E-02 -1.4467100505712E-01  4.0006270964507E-01
103  1.0200000000000E+00  1.8391375176315E-02 -1.2525505888361E-01  3.4632095128345E-01
104  1.0300000000000E+00  1.5931559536680E-02 -1.0607141457112E-01  2.9659545049755E-01
105  1.0400000000000E+00  1.3182605183260E-02 -8.7288707356562E-02  2.5093270691573E-01
106  1.0500000000000E+00  1.0285731333566E-02 -6.9221979635904E-02  2.0931179604919E-01
107  1.0600000000000E+00  7.4091369343484E-03 -5.2314471144384E-02  1.7165595481383E-01
108  1.0700000000000E+00  4.7377543618009E-03 -3.7100109420664E-02  1.3784979148280E-01
109  1.0800000000000E+00  2.4572746353489E-03 -2.4142603000280E-02  1.0776303402671E-01
110  1.0900000000000E+00  7.3121828678233E-04 -1.3946310554576E-02  8.1281833645346E-02
111  1.1000000000000E+00 -3.5659108110558E-04 -6.7469796862688E-03  5.8339489575776E-02
112  1.1100000000000E+00 -9.6794446087936E-04 -1.9348691607230E-03  3.8921230147671E-02
113  1.1200000000000E+00 -1.1094608956750E-03  6.3540995751236E-04  2.3235289697515E-02
114  1.1300000000000E+00 -8.5973167834308E-04  1.3302307337743E-03  1.1496072385551E-02
115  1.1400000000000E+00 -4.0625811046445E-04  8.2625774172116E-04  3.8302539737625E-03
116  1.1500000000000E+00 -4.5694076703515E-05  1.0600759344767E-04  3.1996177520802E-04
117  1.1600000000000E+00  1.4779062820108E-06 -3.5938872776315E-06 -8.9210434205467E-06
118  1.1700000000000E+00  3.0553134601014E-07 -6.8506643586031E-07 -2.3403193730886E-06
119  1.18 -0.  0. -0.
120  1.19  0.  0.  0.
121  1.20  0.  0.  0.
122  1.21  0.  0.  0.
123  1.22  0.  0.  0.
124  1.23  0.  0.  0.
125  1.24  0.  0.  0.
126  1.25  0.  0.  0.
127  1.26  0.  0.  0.
128  1.27  0.  0.  0.
129  1.28  0.  0.  0.
130  1.29  0.  0.  0.
131  1.30  0.  0.  0.
132  1.31  0.  0.  0.
133  1.32  0.  0.  0.
134  1.33  0.  0.  0.
135  1.34  0.  0.  0.
136  1.35  0.  0.  0.
137  1.36  0.  0.  0.
138  1.37  0.  0.  0.
139  1.38  0.  0.  0.
140  1.39  0.  0.  0.
141  1.40  0.  0.  0.
142  1.41  0.  0.  0.
143  1.42  0.  0.  0.
144  1.43  0.  0.  0.
145  1.44  0.  0.  0.
146  1.45  0.  0.  0.
147  1.46  0.  0.  0.
148  1.47  0.  0.  0.
149  1.48  0.  0.  0.
150  1.49  0.  0.  0.
151  1.50  0.  0.  0.
152  1.51  0.  0.  0.
153  1.52  0.  0.  0.
154  1.53  0.  0.  0.
155  1.54  0.  0.  0.
156  1.55  0.  0.  0.
157  1.56  0.  0.  0.
158  1.57  0.  0.  0.
159  1.58  0.  0.  0.
160  1.59  0.  0.  0.
161  1.60  0.  0.  0.
162  1.61  0.  0.  0.
163  1.62  0.  0.  0.
164  1.63  0.  0.  0.
165  1.64  0.  0.  0.
166  1.65  0.  0.  0.
167  1.66  0.  0.  0.
168  1.67  0.  0.  0.
169  1.68  0.  0.  0.
170  1.69  0.  0.  0.
171  1.70  0.  0.  0.
172  1.71  0.  0.  0.
173  1.72  0.  0.  0.
174  1.73  0.  0.  0.
175  1.74  0.  0.  0.
176  1.75  0.  0.  0.
177  1.76  0.  0.  0.
178  1.77  0.  0.  0.
179  1.78  0.  0.  0.
180  1.79  0.  0.  0.
181  1.80  0.  0.  0.
182  1.81  0.  0.  0.
183  1.82  0.  0.  0.
184  1.83  0.  0.  0.
185  1.84  0.  0.  0.
186  1.85  0.  0.  0.
187  1.86  0.  0.  0.
188  1.87  0.  0.  0.
189  1.88  0.  0.  0.
190  1.89  0.  0.  0.
191  1.90  0.  0.  0.
192  1.91  0.  0.  0.
193  1.92  0.  0.  0.
194  1.93  0.  0.  0.
195  1.94  0.  0.  0.
196  1.95  0.  0.  0.
197  1.96  0.  0.  0.
198  1.97  0.  0.  0.
199  1.98  0.  0.  0.
200  1.99  0.  0.  0.
201  2.00  0.  0.  0.
202  2.01  0.  0.  0.
203  2.02  0.  0.  0.
204  2.03  0.  0.  0.
205  2.04  0.  0.  0.
206  2.05  0.  0.  0.
207  2.06  0.  0.  0.
208  2.07  0.  0.  0.
209  2.08  0.  0.  0.
210  2.09  0.  0.  0.
211  2.10  0.  0.  0.
212  2.11  0.  0.  0.
213  2.12  0.  0.  0.
214  2.13  0.  0.  0.
215  2.14  0.  0.  0.
216  2.15  0.  0.  0.
217  2.16  0.  0.  0.
218  2.17  0.  0.  0.
219  2.18  0.  0.  0.
220  2.19  0.  0.  0.
221  2.20  0.  0.  0.
222  2.21  0.  0.  0.
223  2.22  0.  0.  0.
224  2.23  0.  0.  0.
225  2.24  0.  0.  0.
226  2.25  0.  0.  0.
227  2.26  0.  0.  0.
228  2.27  0.  0.  0.
229  2.28  0.  0.  0.
230  2.29  0.  0.  0.
231  2.30  0.  0.  0.
232  2.31  0.  0.  0.
233  2.32  0.  0.  0.
234  2.33  0.  0.  0.
235  2.34  0.  0.  0.
236  2.35  0.  0.  0.
237  2.36  0.  0.  0.
238  2.37  0.  0.  0.
239  2.38  0.  0.  0.
240  2.39  0.  0.  0.
241  2.40  0.  0.  0.
242  2.41  0.  0.  0.
243  2.42  0.  0.  0.
244  2.43  0.  0.  0.
245  2.44  0.  0.  0.
246  2.45  0.  0.  0.
247  2.46  0.  0.  0.
248  2.47  0.  0.  0.
249  2.48  0.  0.  0.
250  2.49  0.  0.  0.
251  2.50  0.  0.  0.
252  2.51  0.  0.  0.
253  2.52  0.  0.  0.
254  2.53  0.  0.  0.
255  2.54  0.  0.  0.
256  2.55  0.  0.  0.
257  2.56  0.  0.  0.
258  2.57  0.  0.  0.
259  2.58  0.  0.  0.
260  2.59  0.  0.  0.
261  2.60  0.  0.  0.
262  2.61  0.  0.  0.
263  2.62  0.  0.  0.
264  2.63  0.  0.  0.
265  2.64  0.  0.  0.
266  2.65  0.  0.  0.
267  2.66  0.  0.  0.
268  2.67  0.  0.  0.
269  2.68  0.  0.  0.
270  2.69  0.  0.  0.
271  2.70  0.  0.  0.
272  2.71  0.  0.  0.
273  2.72  0.  0.  0.
274  2.73  0.  0.  0.
275  2.74  0.  0.  0.
276  2.75  0.  0.  0.
277  2.76  0.  0.  0.
278  2.77  0.  0.  0.
279  2.78  0.  0.  0.
280  2.79  0.  0.  0.
281  2.80  0.  0.  0.
282  2.81  0.  0.  0.
283  2.82  0.  0.  0.
284  2.83  0.  0.  0.
285  2.84  0.  0.  0.
286  2.85  0.  0.  0.
287  2.86  0.  0.  0.
288  2.87  0.  0.  0.
289  2.88  0.  0.  0.
290  2.89  0.  0.  0.
291  2.90  0.  0.  0.
292  2.91  0.  0.  0.
293  2.92  0.  0.  0.
294  2.93  0.  0.  0.
295  2.94  0.  0.  0.
296  2.95  0.  0.  0.
297  2.96  0.  0.  0.
298  2.97  0.  0.  0.
299  2.98  0.  0.  0.
300  2.99  0.  0.  0.
301  3.00  0.  0.  0.
302  3.01  0.  0.  0.
303  3.02  0.  0.  0.
304  3.03  0.  0.  0.
305  3.04  0.  0.  0.
306  3.05  0.  0.  0.
307  3.06  0.  0.  0.
308  3.07  0.  0.  0.
309  3.08  0.  0.  0.
310  3.09  0.  0.  0.
311  3.10  0.  0.  0.
312  3.11  0.  0.  0.
313  3.12  0.  0.  0.
314  3.13  0.  0.  0.
315  3.14  0.  0.  0.
316  3.15  0.  0.  0.
317  3.16  0.  0.  0.
318  3.17  0.  0.  0.
319  3.18  0.  0.  0.
320  3.19  0.  0.  0.
321  3.20  0.  0.  0.
322  3.21  0.  0.  0.
323  3.22  0.  0.  0.
324  3.23  0.  0.  0.
325  3.24  0.  0.  0.
326  3.25  0.  0.  0.
327  3.26  0.  0.  0.
328  3.27  0.  0.  0.
329  3.28  0.  0.  0.
330  3.29  0.  0.  0.
331  3.30  0.  0.  0.
332  3.31  0.  0.  0.
333  3.32  0.  0.  0.
334  3.33  0.  0.  0.
335  3.34  0.  0.  0.
336  3.35  0.  0.  0.
337  3.36  0.  0.  0.
338  3.37  0.  0.  0.
339  3.38  0.  0.  0.
340  3.39  0.  0.  0.
341  3.40  0.  0.  0.
342  3.41  0.  0.  0.
343  3.42  0.  0.  0.
344  3.43  0.  0.  0.
345  3.44  0.  0.  0.
346  3.45  0.  0.  0.
347  3.46  0.  0.  0.
348  3.47  0.  0.  0.
349  3.48  0.  0.  0.
350  3.49  0.  0.  0.
351  3.50  0.  0.  0.
352  3.51  0.  0.  0.
353  3.52  0.  0.  0.
354  3.53  0.  0.  0.
355  3.54  0.  0.  0.
356  3.55  0.  0.  0.
357  3.56  0.  0.  0.
358  3.57  0.  0.  0.
359  3.58  0.  0.  0.
360  3.59  0.  0.  0.
361  3.60  0.  0.  0.
362  3.61  0.  0.  0.
363  3.62  0.  0.  0.
364  3.63  0.  0.  0.
365  3.64  0.  0.  0.
366  3.65  0.  0.  0.
367  3.66  0.  0.  0.
368  3.67  0.  0.  0.
369  3.68  0.  0.  0.
370  3.69  0.  0.  0.
371  3.70  0.  0.  0.
372  3.71  0.  0.  0.
373  3.72  0.  0.  0.
374  3.73  0.  0.  0.
375  3.74  0.  0.  0.
376  3.75  0.  0.  0.
377  3.76  0.  0.  0.
378  3.77  0.  0.  0.
379  3.78  0.  0.  0.
380  3.79  0.  0.  0.
381  3.80  0.  0.  0.
382  3.81  0.  0.  0.
383  3.82  0.  0.  0.
384  3.83  0.  0.  0.
385  3.84  0.  0.  0.
386  3.85  0.  0.  0.
387  3.86  0.  0.  0.
388  3.87  0.  0.  0.
389  3.88  0.  0.  0.
390  3.89  0.  0.  0.
391  3.90  0.  0.  0.
392  3.91  0.  0.  0.
393  3.92  0.  0.  0.
394  3.93  0.  0.  0.
395  3.94  0.  0.  0.
396  3.95  0.  0.  0.
397  3.96  0.  0.  0.
398  3.97  0.  0.  0.
399  3.98  0.  0.  0.
400  3.99  0.  0.  0.
401  4.00  0.  0.  0.
402  4.01  0.  0.  0.
403  4.02  0.  0.  0.
404  4.03  0.  0.  0.
405  4.04  0.  0.  0.
406  4.05  0.  0.  0.
407  4.06  0.  0.  0.
408  4.07  0.  0.  0.
409  4.08  0.  0.  0.
410  4.09  0.  0.  0.
411  4.10  0.  0.  0.
412  4.11  0.  0.  0.
413  4.12  0.  0.  0.
414  4.13  0.  0.  0.
415  4.14  0.  0.  0.
416  4.15  0.  0.  0.
417  4.16  0.  0.  0.
418  4.17  0.  0.  0.
419  4.18  0.  0.  0.
420  4.19  0.  0.  0.
421  4.20  0.  0.  0.
422  4.21  0.  0.  0.
423  4.22  0.  0.  0.
424  4.23  0.  0.  0.
425  4.24  0.  0.  0.
426  4.25  0.  0.  0.
427  4.26  0.  0.  0.
428  4.27  0.  0.  0.
429  4.28  0.  0.  0.
430  4.29  0.  0.  0.
431  4.30  0.  0.  0.
432  4.31  0.  0.  0.
433  4.32  0.  0.  0.
434  4.33  0.  0.  0.
435  4.34  0.  0.  0.
436  4.35  0.  0.  0.
437  4.36  0.  0.  0.
438  4.37  0.  0.  0.
439  4.38  0.  0.  0.
440  4.39  0.  0.  0.
441  4.40  0.  0.  0.
442  4.41  0.  0.  0.
443  4.42  0.  0.  0.
444  4.43  0.  0.  0.
445  4.44  0.  0.  0.
446  4.45  0.  0.  0.
447  4.46  0.  0.  0.
448  4.47  0.  0.  0.
449  4.48  0.  0.  0.
450  4.49  0.  0.  0.
451  4.50  0.  0.  0.
452  4.51  0.  0.  0.
453  4.52  0.  0.  0.
454  4.53  0.  0.  0.
455  4.54  0.  0.  0.
456  4.55  0.  0.  0.
457  4.56  0.  0.  0.
458  4.57  0.  0.  0.
459  4.58  0.  0.  0.
460  4.59  0.  0.  0.
461  4.60  0.  0.  0.
462  4.61  0.  0.  0.
463  4.62  0.  0.  0.
464  4.63  0.  0.  0.
465  4.64  0.  0.  0.
466  4.65  0.  0.  0.
467  4.66  0.  0.  0.
468  4.67  0.  0.  0.
469  4.68  0.  0.  0.
470  4.69  0.  0.  0.
471  4.70  0.  0.  0.
472  4.71  0.  0.  0.
473  4.72  0.  0.  0.
474  4.73  0.  0.  0.
475  4.74  0.  0.  0.
476  4.75  0.  0.  0.
477  4.76  0.  0.  0.
478  4.77  0.  0.  0.
479  4.78  0.  0.  0.
480  4.79  0.  0.  0.
481  4.80  0.  0.  0.
482  4.81  0.  0.  0.
483  4.82  0.  0.  0.
484  4.83  0.  0.  0.
485  4.84  0.  0.  0.
486  4.85  0.  0.  0.
487  4.86  0.  0.  0.
488  4.87  0.  0.  0.
489  4.88  0.  0.  0.
490  4.89  0.  0.  0.
491  4.90  0.  0.  0.
492  4.91  0.  0.  0.
493  4.92  0.  0.  0.
494  4.93  0.  0.  0.
495  4.94  0.  0.  0.
496  4.95  0.  0.  0.
497  4.96  0.  0.  0.
498  4.97  0.  0.  0.
499  4.98  0.  0.  0.
500  4.99  0.  0.  0.
501  5.00  0.  0.  0.
502  5.01  0.  0.  0.
503  5.02  0.  0.  0.
504  5.03  0.  0.  0.
505  5.04  0.  0.  0.
506  5.05  0.  0.  0.
507  5.06  0.  0.  0.
508  5.07  0.  0.  0.
509  5.08  0.  0.  0.
510  5.09  0.  0.  0.
511  5.10  0.  0.  0.
512  5.11  0.  0.  0.
513  5.12  0.  0.  0.
514  5.13  0.  0.  0.
515  5.14  0.  0.  0.
516  5.15  0.  0.  0.
517  5.16  0.  0.  0.
518  5.17  0.  0.  0.
519  5.18  0.  0.  0.
520  5.19  0.  0.  0.
521  5.20  0.  0.  0.
522  5.21  0.  0.  0.
523  5.22  0.  0.  0.
524  5.23  0.  0.  0.
525  5.24  0.  0.  0.
526  5.25  0.  0.  0.
527  5.26  0.  0.  0.
528  5.27  0.  0.  0.
529  5.28  0.  0.  0.
530  5.29  0.  0.  0.
531  5.30  0.  0.  0.
532  5.31  0.  0.  0.
533  5.32  0.  0.  0.
534  5.33  0.  0.  0.
535  5.34  0.  0.  0.
536  5.35  0.  0.  0.
537  5.36  0.  0.  0.
538  5.37  0.  0.  0.
539  5.38  0.  0.  0.
540  5.39  0.  0.  0.
541  5.40  0.  0.  0.
542  5.41  0.  0.  0.
543  5.42  0.  0.  0.
544  5.43  0.  0.  0.
545  5.44  0.  0.  0.
546  5.45  0.  0.  0.
547  5.46  0.  0.  0.
548  5.47  0.  0.  0.
549  5.48  0.  0.  0.
550  5.49  0.  0.  0.
551  5.50  0.  0.  0.
552  5.51  0.  0.  0.
553  5.52  0.  0.  0.
554  5.53  0.  0.  0.
555  5.54  0.  0.  0.
556  5.55  0.  0.  0.
557  5.56  0.  0.  0.
558  5.57  0.  0.  0.
559  5.58  0.  0.  0.
560  5.59  0.  0.  0.
561  5.60  0.  0.  0.
562  5.61  0.  0.  0.
563  5.62  0.  0.  0.
564  5.63  0.  0.  0.
565  5.64  0.  0.  0.
566  5.65  0.  0.  0.
567  5.66  0.  0.  0.
568  5.67  0.  0.  0.
569  5.68  0.  0.  0.
570  5.69  0.  0.  0.
571  5.70  0.  0.  0.
572  5.71  0.  0.  0.
573  5.72  0.  0.  0.
574  5.73  0.  0.  0.
575  5.74  0.  0.  0.
576  5.75  0.  0.  0.
577  5.76  0.  0.  0.
578  5.77  0.  0.  0.
579  5.78  0.  0.  0.
580  5.79  0.  0.  0.
581  5.80  0.  0.  0.
582  5.81  0.  0.  0.
583  5.82  0.  0.  0.
584  5.83  0.  0.  0.
585  5.84  0.  0.  0.
586  5.85  0.  0.  0.
587  5.86  0.  0.  0.
588  5.87  0.  0.  0.
589  5.88  0.  0.  0.
590  5.89  0.  0.  0.
591  5.90  0.  0.  0.
592  5.91  0.  0.  0.
593  5.92  0.  0.  0.
594  5.93  0.  0.  0.
595  5.94  0.  0.  0.
596  5.95  0.  0.  0.
597  5.96  0.  0.  0.
598  5.97  0.  0.  0.
599  5.98  0.  0.  0.
600  5.99  0.  0.  0.
1                         9.4387617275467E+00 -3.3151768567060E-01
1  0.0000000000000E+00 -2.8922159112099E-09 -5.5357433095815E-08
2  1.0000000000000E-02  3.6621399075979E-03  1.2765083670282E-03
3  2.0000000000000E-02  1.4622387202963E-02  5.1119130374918E-03
4  3.0000000000000E-02  3.2802333483921E-02  1.1522980954624E-02
5  4.0000000000000E-02  5.8071663466767E-02  2.0534789591976E-02
6  5.0000000000000E-02  9.0248711519543E-02  3.2176558980878E-02
7  6.0000000000000E-02  1.2910125724602E-01  4.6476077885904E-02
8  7.0000000000000E-02  1.7434757547988E-01  6.3452973944499E-02
9  8.0000000000000E-02  2.2565775894076E-01  8.3111132944339E-02
10  9.0000000000000E-02  2.8265533364919E-01  1.0543061651562E-01
11  1.0000000000000E-01  3.4491918784293E-01  1.3035945867312E-01
12  1.1000000000000E-01  4.1198583447542E-01  1.5780573861031E-01
13  1.2000000000000E-01  4.8335202534690E-01  1.8763032916902E-01
14  1.3000000000000E-01  5.5847773151194E-01  2.1964070724556E-01
15  1.4000000000000E-01  6.3678949986689E-01  2.5358618433623E-01
16  1.5000000000000E-01  7.1768418984105E-01  2.8915487328809E-01
17  1.6000000000000E-01  8.0053308704089E-01  3.2597265241313E-01
18  1.7000000000000E-01  8.8468638271446E-01  3.6360432221642E-01
19  1.8000000000000E-01  9.6947799924206E-01  4.0155707525304E-01
20  1.9000000000000E-01  1.0542307327778E+00  4.3928631856433E-01
21  2.0000000000000E-01  1.1382616749494E+00  4.7620380350597E-01
22  2.1000000000000E-01  1.2208878664661E+00  5.1168793247594E-01
23  2.2000000000000E-01  1.3014321268945E+00  5.4509602905323E-01
24  2.3000000000000E-01  1.3792289970313E+00  5.7577828029989E-01
25  2.4000000000000E-01  1.4536307235171E+00  6.0309299025362E-01
26  2.5000000000000E-01  1.5240132098540E+00  6.2642272450615E-01
27  2.6000000000000E-01  1.5897818540350E+00  6.4519087945681E-01
28  2.7000000000000E-01  1.6503771907443E+00  6.5887817818301E-01
29  2.8000000000000E-01  1.7052802556872E+00  6.6703857923758E-01
30  2.9000000000000E-01  1.7540175911249E+00  6.6931408590282E-01
31  3.0000000000000E-01  1.7961658151533E+00  6.6544796177972E-01
32  3.1000000000000E-01  1.8313556826403E+00  6.5529589376757E-01
33  3.2000000000000E-01  1.8592755729203E+00  6.3883469462261E-01
34  3.3000000000000E-01  1.8796743481962E+00  6.1616820294889E-01
35  3.4000000000000E-01  1.8923635369029E+00  5.8753011673340E-01
36  3.5000000000000E-01  1.8972188078040E+00  5.5328358500070E-01
37  3.6000000000000E-01  1.8941807130182E+00  5.1391747806119E-01
38  3.7000000000000E-01  1.8832546911981E+00  4.7003935709920E-01
39  3.8000000000000E-01  1.8645103353596E+00  4.2236526524232E-01
40  3.9000000000000E-01  1.8380799430361E+00  3.7170656143305E-01
41  4.0000000000000E-01  1.8041563791579E+00  3.1895411207927E-01
42  4.1000000000000E-01  1.7629902939906E+00  2.6506024041861E-01
43  4.2000000000000E-01  1.7148867492991E+00  2.1101890687497E-01
44  4.3000000000000E-01  1.6602013153433E+00  1.5784465283880E-01
45  4.4000000000000E-01  1.5993357091288E+00  1.0655088314222E-01
46  4.5000000000000E-01  1.5327330503329E+00  5.8128087417954E-02
47  4.6000000000000E-01  1.4608728153752E+00  1.3522606506399E-02
48  4.7000000000000E-01  1.3842655721356E+00 -2.6383463288473E-02
49  4.8000000000000E-01  1.3034475778212E+00 -6.0790667743734E-02
50  4.9000000000000E-01  1.2189753205181E+00 -8.8998384349985E-02
51  5.0000000000000E-01  1.1314200811422E+00 -1.1041836161696E-01
52  5.1000000000000E-01  1.0413625870036E+00 -1.2458524748999E-01
53  5.2000000000000E-01  9.4938782124976E-01 -1.3116384009822E-01
54  5.3000000000000E-01  8.5608004432404E-01 -1.2995289671249E-01
55  5.4000000000000E-01  7.6201807457017E-01 -1.2088544493326E-01
56  5.5000000000000E-01  6.6777086556123E-01 -1.0402565014921E-01
57  5.6000000000000E-01  5.7389340797102E-01 -7.9562401497428E-02
58  5.7000000000000E-01  4.8092297417543E-01 -4.7799881245155E-02
59  5.8000000000000E-01  3.8937571459822E-01 -9.1454761800172E-03
60  5.9000000000000E-01  2.9974360640011E-01  3.5904528988323E-02
61  6.0000000000000E-01  2.1249174771928E-01  8.6780969882493E-02
62  6.1000000000000E-01  1.2805598452551E-01  1.4285897712197E-01
63  6.2000000000000E-01  4.6840852416472E-02  2.0347572239122E-01
64  6.3000000000000E-01 -3.0782187528197E-02  2.6794814137734E-01
65  6.4000000000000E-01 -1.0447624136807E-01  3.3559005012466E-01
66  6.5000000000000E-01 -1.7394022603618E-01  4.0572810269014E-01
67  6.6000000000000E-01 -2.3890988547064E-01  4.7771608850697E-01
68  6.7000000000000E-01 -2.9915859776301E-01  5.5094713581278E-01
69  6.8000000000000E-01 -3.5449798816782E-01  6.2486347047296E-01
70  6.9000000000000E-01 -4.0477835818393E-01  6.9896347458816E-01
71  7.0000000000000E-01 -4.4988893571185E-01  7.7280589299843E-01
72  7.1000000000000E-01 -4.8975794582856E-01  8.4601114446128E-01
73  7.2000000000000E-01 -5.2435249632920E-01  9.1825980391802E-01
74  7.3000000000000E-01 -5.5367826719397E-01  9.8928842888885E-01
75  7.4000000000000E-01 -5.7777898886477E-01  1.0588830026975E+00
76  7.5000000000000E-01 -5.9673569094959E-01  1.1268703562385E+00
77  7.6000000000000E-01 -6.1066570096606E-01  1.1931080050189E+00
78  7.7000000000000E-01 -6.1972137219003E-01  1.2574728963800E+00
79  7.8000000000000E-01 -6.2408852073349E-01  1.3198496009008E+00
80  7.9000000000000E-01 -6.2398455471392E-01  1.3801185004370E+00
81  8.0000000000000E-01 -6.1965628279723E-01  1.4381445222800E+00
82  8.1000000000000E-01 -6.1137739542808E-01  1.4937669445237E+00
83  8.2000000000000E-01 -5.9944561955777E-01  1.5467907527407E+00
84  8.3000000000000E-01 -5.8417955642488E-01  1.5969799641033E+00
85  8.4000000000000E-01 -5.6591522165278E-01  1.6440532545222E+00
86  8.5000000000000E-01 -5.4500231726178E-01  1.6876821302809E+00
87  8.6000000000000E-01 -5.2180027576204E-01  1.7274917816617E+00
88  8.7000000000000E-01 -4.9667412687455E-01  1.7630646463283E+00
89  8.8000000000000E-01 -4.6999024717521E-01  1.7939465992191E+00
90  8.9000000000000E-01 -4.4211206162059E-01  1.8196555780856E+00
91  9.0000000000000E-01 -4.1339577304829E-01  1.8396923543146E+00
92  9.1000000000000E-01 -3.8418620092953E-01  1.8535530719091E+00
93  9.2000000000000E-01 -3.5481281350242E-01  1.8607431078560E+00
94  9.3000000000000E-01 -3.2558603759681E-01  1.8607917585468E+00
95  9.4000000000000E-01 -2.9679392770382E-01  1.8532672329166E+00
96  9.5000000000000E-01 -2.6869926994168E-01  1.8377914363648E+00
97  9.6000000000000E-01 -2.4153718740603E-01  1.8140540624368E+00
98  9.7000000000000E-01 -2.1551330091746E-01  1.7818255730698E+00
99  9.8000000000000E-01 -1.9080248344793E-01  1.7409687434444E+00
100  9.9000000000000E-01 -1.6754822763571E-01  1.6914485739285E+00
101  1.0000000000000E+00 -1.4586262402148E-01  1.6333405279966E+00
102  1.0100000000000E+00 -1.2582692320240E-01  1.5668372397905E+00
103  1.0200000000000E+00 -1.0749262840074E-01  1.4922540453109E+00
104  1.0300000000000E+00 -9.0883036384696E-02  1.4100339239133E+00
105  1.0400000000000E+00 -7.5995114697344E-02  1.3207526883217E+00
106  1.0500000000000E+00 -6.2801572263441E-02  1.2251255274390E+00
107  1.0600000000000E+00 -5.1252949210346E-02  1.1240162819771E+00
108  1.0700000000000E+00 -4.1279520573022E-02  1.0184511147026E+00
109  1.0800000000000E+00 -3.2792778116581E-02  9.0963851890946E-01
110  1.0900000000000E+00 -2.5686224611297E-02  7.9899789750225E-01
111  1.1000000000000E+00 -1.9835193345865E-02  6.8819910277194E-01
112  1.1100000000000E+00 -1.5095358896428E-02  5.7921597645248E-01
113  1.1200000000000E+00 -1.1304439244408E-02  4.7431063488816E-01
114  1.1300000000000E+00 -8.3002034337263E-03  3.7573435409024E-01
115  1.1400000000000E+00 -5.9336555247704E-03  2.8554660495705E-01
116  1.1500000000000E+00 -4.0890015332884E-03  2.0547799832774E-01
117  1.1600000000000E+00 -2.6838808872303E-03  1.3691524032839E-01
118  1.1700000000000E+00 -1.6155652100246E-03  8.1281015524728E-02
119  1.1800000000000E+00 -8.2120070610788E-04  3.9641462665516E-02
120  1.1900000000000E+00 -2.7990605723809E-04  1.2655325794886E-02
121  1.2000000000000E+00 -2.1035377345090E-05  8.6976532362383E-04
122  1.2100000000000E+00  3.4981807412898E-07 -1.3805765652844E-05
123  1.2200000000000E+00  2.1534772443199E-07 -9.2597739113204E-06
124  1.23 -0.  0.
125  1.24  0.  0.
126  1.25  0.  0.
127  1.26  0.  0.
128  1.27  0.  0.
129  1.28  0.  0.
130  1.29  0.  0.
131  1.30  0.  0.
132  1.31  0.  0.
133  1.32  0.  0.
134  1.33  0.  0.
135  1.34  0.  0.
136  1.35  0.  0.
137  1.36  0.  0.
138  1.37  0.  0.
139  1.38  0.  0.
140  1.39  0.  0.
141  1.40  0.  0.
142  1.41  0.  0.
143  1.42  0.  0.
144  1.43  0.  0.
145  1.44  0.  0.
146  1.45  0.  0.
147  1.46  0.  0.
148  1.47  0.  0.
149  1.48  0.  0.
150  1.49  0.  0.
151  1.50  0.  0.