Ac    ONCVPSP-4.0.1  r_core=   1.30140   1.30140   1.40664   1.55722
89.0000     29.0000      220712    zatom,zion,pspd
8      11   3     4   600     0    pspcod,pspxc,lmax,lloc,mmax,r2well
5.99000000  5.00000000  0.00000000    rchrg fchrg qchrg
3     2     2     1     0    nproj
1     1           extension_switch
0                         2.3460506297187E+01  2.5259149853909E+00 -7.4231541673928E-01
1  0.0000000000000E+00 -4.0422160285658E-08  1.3937909315587E-07  7.7813523680081E-09
2  1.0000000000000E-02  1.3475084261024E-01 -8.1424328519138E-02  2.1591042096262E-02
3  2.0000000000000E-02  2.6859800727425E-01 -1.6106477854177E-01  4.3165973110007E-02
4  3.0000000000000E-02  4.0065192034964E-01 -2.3718118861069E-01  6.4706657520291E-02
5  4.0000000000000E-02  5.3005085044895E-01 -3.0811957895003E-01  8.6190985339041E-02
6  5.0000000000000E-02  6.5597392460968E-01 -3.7235214896664E-01  1.0759106882247E-01
7  6.0000000000000E-02  7.7765308877123E-01 -4.2851366703169E-01  1.2887165414879E-01
8  7.0000000000000E-02  8.9438371009566E-01 -4.7543322038248E-01  1.4998881026660E-01
9  8.0000000000000E-02  1.0055335590916E+00 -5.1216043236320E-01  1.7088894933720E-01
10  9.0000000000000E-02  1.1105499576606E+00 -5.3798542032661E-01  1.9150822385659E-01
11  1.0000000000000E-01  1.2089649336106E+00 -5.5245195529431E-01  2.1177233489512E-01
12  1.1000000000000E-01  1.3003982812140E+00 -5.5536348822132E-01  2.3159677421316E-01
13  1.2000000000000E-01  1.3845584892162E+00 -5.4678192122970E-01  2.5088751060771E-01
14  1.3000000000000E-01  1.4612415604465E+00 -5.2701921898852E-01  2.6954211804283E-01
15  1.4000000000000E-01  1.5303278089269E+00 -4.9662216893114E-01  2.8745133025536E-01
16  1.5000000000000E-01  1.5917767792270E+00 -4.5635080272946E-01  3.0450099394534E-01
17  1.6000000000000E-01  1.6456204869896E+00 -4.0715117921354E-01  3.2057438069193E-01
18  1.7000000000000E-01  1.6919552273963E+00 -3.5012339502553E-01  3.3555480669955E-01
19  1.8000000000000E-01  1.7309322383939E+00 -2.8648582870325E-01  3.4932849966998E-01
20  1.9000000000000E-01  1.7627475365615E+00 -2.1753673238233E-01  3.6178764377952E-01
21  2.0000000000000E-01  1.7876312646031E+00 -1.4461435960560E-01  3.7283352714227E-01
22  2.1000000000000E-01  1.8058368999953E+00 -6.9056855620074E-02  3.8237971144421E-01
23  2.2000000000000E-01  1.8176306739692E+00  7.8368631101314E-03  3.9035514077264E-01
24  2.3000000000000E-01  1.8232815388172E+00  8.4844050586908E-02  3.9670710612438E-01
25  2.4000000000000E-01  1.8230519998266E+00  1.6085177804310E-01  4.0140398368159E-01
26  2.5000000000000E-01  1.8171900966593E+00  2.3488627717193E-01  4.0443766866990E-01
27  2.6000000000000E-01  1.8059227786966E+00  3.0613710940821E-01  4.0582563237820E-01
28  2.7000000000000E-01  1.7894508710214E+00  3.7397545548283E-01  4.0561253758952E-01
29  2.8000000000000E-01  1.7679457738061E+00  4.3796600545954E-01  4.0387135706385E-01
30  2.9000000000000E-01  1.7415479795981E+00  4.9787213107361E-01  4.0070395060127E-01
31  3.0000000000000E-01  1.7103674321721E+00  5.5365423321169E-01  3.9624106832904E-01
32  3.1000000000000E-01  1.6744856891308E+00  6.0546137131263E-01  3.9064176090231E-01
33  3.2000000000000E-01  1.6339597902260E+00  6.5361649173965E-01  3.8409219096300E-01
34  3.3000000000000E-01  1.5888276763022E+00  6.9859577230280E-01  3.7680385412470E-01
35  3.4000000000000E-01  1.5391149516302E+00  7.4100278396083E-01  3.6901123159934E-01
36  3.5000000000000E-01  1.4848427368305E+00  7.8153833261744E-01  3.6096891000699E-01
37  3.6000000000000E-01  1.4260363220141E+00  8.2096697891573E-01  3.5294821658149E-01
38  3.7000000000000E-01  1.3627343013773E+00  8.6008133783367E-01  3.4523342958265E-01
39  3.8000000000000E-01  1.2949978521736E+00  8.9966532955620E-01  3.3811763396584E-01
40  3.9000000000000E-01  1.2229198133455E+00  9.4045758636930E-01  3.3189830098313E-01
41  4.0000000000000E-01  1.1466332223742E+00  9.8311621621675E-01  3.2687267718625E-01
42  4.1000000000000E-01  1.0663189830318E+00  1.0281860822024E+00  3.2333307310140E-01
43  4.2000000000000E-01  9.8221236126278E-01  1.0760696800167E+00  3.2156214453234E-01
44  4.3000000000000E-01  8.9460804065056E-01  1.1270025844144E+00  3.2182825995865E-01
45  4.4000000000000E-01  8.0386351178584E-01  1.1810342948999E+00  3.2438104582080E-01
46  4.5000000000000E-01  7.1040062004448E-01  1.2380151440664E+00  3.2944719767072E-01
47  4.6000000000000E-01  6.1470515225351E-01  1.2975897447165E+00  3.3722663931529E-01
48  4.7000000000000E-01  5.1732440275959E-01  1.3591972497757E+00  3.4788910434309E-01
49  4.8000000000000E-01  4.1886272166686E-01  1.4220784883063E+00  3.6157120500052E-01
50  4.9000000000000E-01  3.1997511055927E-01  1.4852898281544E+00  3.7837404251286E-01
51  5.0000000000000E-01  2.2135899194280E-01  1.5477234074560E+00  3.9836140090564E-01
52  5.1000000000000E-01  1.2374433605896E-01  1.6081331797872E+00  4.2155855347568E-01
53  5.2000000000000E-01  2.7882380860020E-02  1.6651660372347E+00  4.4795169761602E-01
54  5.3000000000000E-01 -6.5466773801346E-02  1.7173971176030E+00  4.7748802004975E-01
55  5.4000000000000E-01 -1.5554737972444E-01  1.7633682711749E+00  5.1007638101524E-01
56  5.5000000000000E-01 -2.4162171602400E-01  1.8016285628707E+00  5.4558859290368E-01
57  5.6000000000000E-01 -3.2298386393706E-01  1.8307756203012E+00  5.8386125659758E-01
58  5.7000000000000E-01 -3.9897321124093E-01  1.8494966089856E+00  6.2469810759309E-01
59  5.8000000000000E-01 -4.6898732115236E-01  1.8566076237278E+00  6.6787281417577E-01
60  5.9000000000000E-01 -5.3249381580276E-01  1.8510903294499E+00  7.1313216168626E-01
61  6.0000000000000E-01 -5.8904094995008E-01  1.8321247642089E+00  7.6019955044575E-01
62  6.1000000000000E-01 -6.3826658570077E-01  1.7991173291030E+00  8.0877873034726E-01
63  6.2000000000000E-01 -6.7990532258865E-01  1.7517231307741E+00  8.5855769254450E-01
64  6.3000000000000E-01 -7.1379358804763E-01  1.6898620077876E+00  9.0921263811776E-01
65  6.4000000000000E-01 -7.3987254956647E-01  1.6137277571580E+00  9.6041194504414E-01
66  6.5000000000000E-01 -7.5818876990932E-01  1.5237902759593E+00  1.0118200581746E+00
67  6.6000000000000E-01 -7.6889258889653E-01  1.4207905391668E+00  1.0631012320965E+00
68  6.7000000000000E-01 -7.7223427748967E-01  1.3057285423261E+00  1.1139230635668E+00
69  6.8000000000000E-01 -7.6855807044309E-01  1.1798445399919E+00  1.1639597584218E+00
70  6.9000000000000E-01 -7.5829424077440E-01  1.0445941020578E+00  1.2128950872574E+00
71  7.0000000000000E-01 -7.4194943108397E-01  9.0161768434158E-01  1.2604249944467E+00
72  7.1000000000000E-01 -7.2009550182445E-01  7.5270556201515E-01  1.3062598359207E+00
73  7.2000000000000E-01 -6.9335719370013E-01  5.9975910022017E-01  1.3501262322690E+00
74  7.3000000000000E-01 -6.6239892944549E-01  4.4474943197373E-01  1.3917685348034E+00
75  7.4000000000000E-01 -6.2791109856073E-01  2.8967467664662E-01  1.4309499129530E+00
76  7.5000000000000E-01 -5.9059617675040E-01  1.3651686136090E-01  1.4674530814285E+00
77  7.6000000000000E-01 -5.5115502971681E-01 -1.2800297867198E-02  1.5010806947194E+00
78  7.7000000000000E-01 -5.1027373882492E-01 -1.5645163789385E-01  1.5316554444332E+00
79  7.8000000000000E-01 -4.6861126450318E-01 -2.9274776756444E-01  1.5590199015195E+00
80  7.9000000000000E-01 -4.2678823289365E-01 -4.2016832006145E-01  1.5830361503864E+00
81  8.0000000000000E-01 -3.8537709328332E-01 -5.3739042194220E-01  1.6035852651778E+00
82  8.1000000000000E-01 -3.4489384953149E-01 -6.4331171174428E-01  1.6205666799609E+00
83  8.2000000000000E-01 -3.0579151951936E-01 -7.3706740741459E-01  1.6338975042506E+00
84  8.3000000000000E-01 -2.6845542417733E-01 -8.1804109981494E-01  1.6435118331978E+00
85  8.4000000000000E-01 -2.3320035355685E-01 -8.8586913356768E-01  1.6493600979724E+00
86  8.5000000000000E-01 -2.0026960337874E-01 -9.4043862086451E-01  1.6514084965002E+00
87  8.6000000000000E-01 -1.6983582315455E-01 -9.8187931297001E-01  1.6496385379545E+00
88  8.7000000000000E-01 -1.4200356787977E-01 -1.0105497227455E+00  1.6440467264527E+00
89  8.8000000000000E-01 -1.1681340085268E-01 -1.0270180447272E+00  1.6346444005409E+00
90  8.9000000000000E-01 -9.4247356599614E-02 -1.0320385528821E+00  1.6214577355243E+00
91  9.0000000000000E-01 -7.4235541194210E-02 -1.0265242665945E+00  1.6045279058347E+00
92  9.1000000000000E-01 -5.6663623204929E-02 -1.0115167599922E+00  1.5839113947262E+00
93  9.2000000000000E-01 -4.1380952585103E-02 -9.8815404657012E-01  1.5596804289864E+00
94  9.3000000000000E-01 -2.8209037254679E-02 -9.5763749929533E-01  1.5319235073509E+00
95  9.4000000000000E-01 -1.6950107862121E-02 -9.2119876597318E-01  1.5007459832393E+00
96  9.5000000000000E-01 -7.3955099375061E-03 -8.8006761154206E-01  1.4662706555704E+00
97  9.6000000000000E-01  6.6632119499833E-04 -8.3544156482423E-01  1.4286383160354E+00
98  9.7000000000000E-01  7.4425245668963E-03 -7.8845816958823E-01  1.3880081975548E+00
99  9.8000000000000E-01  1.3129310081576E-02 -7.4017054163120E-01  1.3445582669065E+00
100  9.9000000000000E-01  1.7906447577522E-02 -6.9152681857575E-01  1.2984853048660E+00
101  1.0000000000000E+00  2.1932872062791E-02 -6.4335396107071E-01  1.2500047197520E+00
102  1.0100000000000E+00  2.5343489982484E-02 -5.9634622717071E-01  1.1993500451065E+00
103  1.0200000000000E+00  2.8247231644322E-02 -5.5105849997915E-01  1.1467720793854E+00
104  1.0300000000000E+00  3.0726355394574E-02 -5.0790450616312E-01  1.0925376349704E+00
105  1.0400000000000E+00  3.2836970809384E-02 -4.6715982308534E-01  1.0369278755027E+00
106  1.0500000000000E+00  3.4610712059677E-02 -4.2896943857120E-01  9.8023623435632E-01
107  1.0600000000000E+00  3.6057459391020E-02 -3.9335950209202E-01  9.2276592289352E-01
108  1.0700000000000E+00  3.7168976837103E-02 -3.6025279120597E-01  8.6482705483844E-01
109  1.0800000000000E+00  3.7923308240929E-02 -3.2948731397814E-01  8.0673343240013E-01
110  1.0900000000000E+00  3.8289751274589E-02 -3.0083737650808E-01  7.4879906055657E-01
111  1.1000000000000E+00  3.8234210319248E-02 -2.7403636454208E-01  6.9133447785685E-01
112  1.1100000000000E+00  3.7724713215178E-02 -2.4880041768435E-01  6.3464301500275E-01
113  1.1200000000000E+00  3.6736863274423E-02 -2.2485211164980E-01  5.7901711612172E-01
114  1.1300000000000E+00  3.5258985624266E-02 -2.0194320547095E-01  5.2473488166798E-01
115  1.1400000000000E+00  3.3296714608312E-02 -1.7987545227523E-01  4.7205701623941E-01
116  1.1500000000000E+00  3.0876755370925E-02 -1.5851841041128E-01  4.2122438877508E-01
117  1.1600000000000E+00  2.8049536147487E-02 -1.3782312049382E-01  3.7245643667486E-01
118  1.1700000000000E+00  2.4890446763365E-02 -1.1783042900674E-01  3.2595066883435E-01
119  1.1800000000000E+00  2.1499331393095E-02 -9.8672633698295E-02  2.8188354551421E-01
120  1.1900000000000E+00  1.7997868249990E-02 -8.0566995396731E-02  2.4041303495110E-01
121  1.2000000000000E+00  1.4524423646330E-02 -6.3799498690159E-02  2.0168316766001E-01
122  1.2100000000000E+00  1.1225910920682E-02 -4.8697044030138E-02  1.6583092933359E-01
123  1.2200000000000E+00  8.2460540054753E-03 -3.5585830056207E-02  1.3299581784468E-01
124  1.2300000000000E+00  5.7099039951511E-03 -2.4734962817495E-02  1.0333274068134E-01
125  1.2400000000000E+00  3.6906731994432E-03 -1.6243375875653E-02  7.7020296885472E-02
126  1.2500000000000E+00  2.1194442827176E-03 -9.7527649233175E-03  5.4234660298269E-02
127  1.2600000000000E+00  9.9884762158406E-04 -5.1087608025281E-03  3.5234514084516E-02
128  1.2700000000000E+00  3.1688330296961E-04 -2.1479549627276E-03  2.0229599982783E-02
129  1.2800000000000E+00  8.5768081323349E-06 -5.8941483586969E-04  9.3482935397589E-03
130  1.2900000000000E+00 -4.1318736745620E-05 -4.1294997733341E-05  2.6126271968652E-03
131  1.3000000000000E+00 -3.0522376395844E-06  3.4704065915300E-06  8.3050364112935E-05
132  1.3100000000000E+00 -2.2791496643424E-07  2.0861616530366E-07  7.0996521460778E-06
133  1.3200000000000E+00  7.0239166455991E-08 -1.2473458767423E-08 -3.0523423284178E-06
134  1.33 -0.  0. -0.
135  1.34  0.  0.  0.
136  1.35  0.  0.  0.
137  1.36  0.  0.  0.
138  1.37  0.  0.  0.
139  1.38  0.  0.  0.
140  1.39  0.  0.  0.
141  1.40  0.  0.  0.
142  1.41  0.  0.  0.
143  1.42  0.  0.  0.
144  1.43  0.  0.  0.
145  1.44  0.  0.  0.
146  1.45  0.  0.  0.
147  1.46  0.  0.  0.
148  1.47  0.  0.  0.
149  1.48  0.  0.  0.
150  1.49  0.  0.  0.
151  1.50  0.  0.  0.
152  1.51  0.  0.  0.
153  1.52  0.  0.  0.
154  1.53  0.  0.  0.
155  1.54  0.  0.  0.
156  1.55  0.  0.  0.
157  1.56  0.  0.  0.
158  1.57  0.  0.  0.
159  1.58  0.  0.  0.
160  1.59  0.  0.  0.
161  1.60  0.  0.  0.
162  1.61  0.  0.  0.
163  1.62  0.  0.  0.
164  1.63  0.  0.  0.
165  1.64  0.  0.  0.
166  1.65  0.  0.  0.
167  1.66  0.  0.  0.
168  1.67  0.  0.  0.
169  1.68  0.  0.  0.
170  1.69  0.  0.  0.
171  1.70  0.  0.  0.
172  1.71  0.  0.  0.
173  1.72  0.  0.  0.
174  1.73  0.  0.  0.
175  1.74  0.  0.  0.
176  1.75  0.  0.  0.
177  1.76  0.  0.  0.
178  1.77  0.  0.  0.
179  1.78  0.  0.  0.
180  1.79  0.  0.  0.
181  1.80  0.  0.  0.
182  1.81  0.  0.  0.
183  1.82  0.  0.  0.
184  1.83  0.  0.  0.
185  1.84  0.  0.  0.
186  1.85  0.  0.  0.
187  1.86  0.  0.  0.
188  1.87  0.  0.  0.
189  1.88  0.  0.  0.
190  1.89  0.  0.  0.
191  1.90  0.  0.  0.
192  1.91  0.  0.  0.
193  1.92  0.  0.  0.
194  1.93  0.  0.  0.
195  1.94  0.  0.  0.
196  1.95  0.  0.  0.
197  1.96  0.  0.  0.
198  1.97  0.  0.  0.
199  1.98  0.  0.  0.
200  1.99  0.  0.  0.
201  2.00  0.  0.  0.
202  2.01  0.  0.  0.
203  2.02  0.  0.  0.
204  2.03  0.  0.  0.
205  2.04  0.  0.  0.
206  2.05  0.  0.  0.
207  2.06  0.  0.  0.
208  2.07  0.  0.  0.
209  2.08  0.  0.  0.
210  2.09  0.  0.  0.
211  2.10  0.  0.  0.
212  2.11  0.  0.  0.
213  2.12  0.  0.  0.
214  2.13  0.  0.  0.
215  2.14  0.  0.  0.
216  2.15  0.  0.  0.
217  2.16  0.  0.  0.
218  2.17  0.  0.  0.
219  2.18  0.  0.  0.
220  2.19  0.  0.  0.
221  2.20  0.  0.  0.
222  2.21  0.  0.  0.
223  2.22  0.  0.  0.
224  2.23  0.  0.  0.
225  2.24  0.  0.  0.
226  2.25  0.  0.  0.
227  2.26  0.  0.  0.
228  2.27  0.  0.  0.
229  2.28  0.  0.  0.
230  2.29  0.  0.  0.
231  2.30  0.  0.  0.
232  2.31  0.  0.  0.
233  2.32  0.  0.  0.
234  2.33  0.  0.  0.
235  2.34  0.  0.  0.
236  2.35  0.  0.  0.
237  2.36  0.  0.  0.
238  2.37  0.  0.  0.
239  2.38  0.  0.  0.
240  2.39  0.  0.  0.
241  2.40  0.  0.  0.
242  2.41  0.  0.  0.
243  2.42  0.  0.  0.
244  2.43  0.  0.  0.
245  2.44  0.  0.  0.
246  2.45  0.  0.  0.
247  2.46  0.  0.  0.
248  2.47  0.  0.  0.
249  2.48  0.  0.  0.
250  2.49  0.  0.  0.
251  2.50  0.  0.  0.
252  2.51  0.  0.  0.
253  2.52  0.  0.  0.
254  2.53  0.  0.  0.
255  2.54  0.  0.  0.
256  2.55  0.  0.  0.
257  2.56  0.  0.  0.
258  2.57  0.  0.  0.
259  2.58  0.  0.  0.
260  2.59  0.  0.  0.
261  2.60  0.  0.  0.
262  2.61  0.  0.  0.
263  2.62  0.  0.  0.
264  2.63  0.  0.  0.
265  2.64  0.  0.  0.
266  2.65  0.  0.  0.
267  2.66  0.  0.  0.
268  2.67  0.  0.  0.
269  2.68  0.  0.  0.
270  2.69  0.  0.  0.
271  2.70  0.  0.  0.
272  2.71  0.  0.  0.
273  2.72  0.  0.  0.
274  2.73  0.  0.  0.
275  2.74  0.  0.  0.
276  2.75  0.  0.  0.
277  2.76  0.  0.  0.
278  2.77  0.  0.  0.
279  2.78  0.  0.  0.
280  2.79  0.  0.  0.
281  2.80  0.  0.  0.
282  2.81  0.  0.  0.
283  2.82  0.  0.  0.
284  2.83  0.  0.  0.
285  2.84  0.  0.  0.
286  2.85  0.  0.  0.
287  2.86  0.  0.  0.
288  2.87  0.  0.  0.
289  2.88  0.  0.  0.
290  2.89  0.  0.  0.
291  2.90  0.  0.  0.
292  2.91  0.  0.  0.
293  2.92  0.  0.  0.
294  2.93  0.  0.  0.
295  2.94  0.  0.  0.
296  2.95  0.  0.  0.
297  2.96  0.  0.  0.
298  2.97  0.  0.  0.
299  2.98  0.  0.  0.
300  2.99  0.  0.  0.
301  3.00  0.  0.  0.
302  3.01  0.  0.  0.
303  3.02  0.  0.  0.
304  3.03  0.  0.  0.
305  3.04  0.  0.  0.
306  3.05  0.  0.  0.
307  3.06  0.  0.  0.
308  3.07  0.  0.  0.
309  3.08  0.  0.  0.
310  3.09  0.  0.  0.
311  3.10  0.  0.  0.
312  3.11  0.  0.  0.
313  3.12  0.  0.  0.
314  3.13  0.  0.  0.
315  3.14  0.  0.  0.
316  3.15  0.  0.  0.
317  3.16  0.  0.  0.
318  3.17  0.  0.  0.
319  3.18  0.  0.  0.
320  3.19  0.  0.  0.
321  3.20  0.  0.  0.
322  3.21  0.  0.  0.
323  3.22  0.  0.  0.
324  3.23  0.  0.  0.
325  3.24  0.  0.  0.
326  3.25  0.  0.  0.
327  3.26  0.  0.  0.
328  3.27  0.  0.  0.
329  3.28  0.  0.  0.
330  3.29  0.  0.  0.
331  3.30  0.  0.  0.
332  3.31  0.  0.  0.
333  3.32  0.  0.  0.
334  3.33  0.  0.  0.
335  3.34  0.  0.  0.
336  3.35  0.  0.  0.
337  3.36  0.  0.  0.
338  3.37  0.  0.  0.
339  3.38  0.  0.  0.
340  3.39  0.  0.  0.
341  3.40  0.  0.  0.
342  3.41  0.  0.  0.
343  3.42  0.  0.  0.
344  3.43  0.  0.  0.
345  3.44  0.  0.  0.
346  3.45  0.  0.  0.
347  3.46  0.  0.  0.
348  3.47  0.  0.  0.
349  3.48  0.  0.  0.
350  3.49  0.  0.  0.
351  3.50  0.  0.  0.
352  3.51  0.  0.  0.
353  3.52  0.  0.  0.
354  3.53  0.  0.  0.
355  3.54  0.  0.  0.
356  3.55  0.  0.  0.
357  3.56  0.  0.  0.
358  3.57  0.  0.  0.
359  3.58  0.  0.  0.
360  3.59  0.  0.  0.
361  3.60  0.  0.  0.
362  3.61  0.  0.  0.
363  3.62  0.  0.  0.
364  3.63  0.  0.  0.
365  3.64  0.  0.  0.
366  3.65  0.  0.  0.
367  3.66  0.  0.  0.
368  3.67  0.  0.  0.
369  3.68  0.  0.  0.
370  3.69  0.  0.  0.
371  3.70  0.  0.  0.
372  3.71  0.  0.  0.
373  3.72  0.  0.  0.
374  3.73  0.  0.  0.
375  3.74  0.  0.  0.
376  3.75  0.  0.  0.
377  3.76  0.  0.  0.
378  3.77  0.  0.  0.
379  3.78  0.  0.  0.
380  3.79  0.  0.  0.
381  3.80  0.  0.  0.
382  3.81  0.  0.  0.
383  3.82  0.  0.  0.
384  3.83  0.  0.  0.
385  3.84  0.  0.  0.
386  3.85  0.  0.  0.
387  3.86  0.  0.  0.
388  3.87  0.  0.  0.
389  3.88  0.  0.  0.
390  3.89  0.  0.  0.
391  3.90  0.  0.  0.
392  3.91  0.  0.  0.
393  3.92  0.  0.  0.
394  3.93  0.  0.  0.
395  3.94  0.  0.  0.
396  3.95  0.  0.  0.
397  3.96  0.  0.  0.
398  3.97  0.  0.  0.
399  3.98  0.  0.  0.
400  3.99  0.  0.  0.
401  4.00  0.  0.  0.
402  4.01  0.  0.  0.
403  4.02  0.  0.  0.
404  4.03  0.  0.  0.
405  4.04  0.  0.  0.
406  4.05  0.  0.  0.
407  4.06  0.  0.  0.
408  4.07  0.  0.  0.
409  4.08  0.  0.  0.
410  4.09  0.  0.  0.
411  4.10  0.  0.  0.
412  4.11  0.  0.  0.
413  4.12  0.  0.  0.
414  4.13  0.  0.  0.
415  4.14  0.  0.  0.
416  4.15  0.  0.  0.
417  4.16  0.  0.  0.
418  4.17  0.  0.  0.
419  4.18  0.  0.  0.
420  4.19  0.  0.  0.
421  4.20  0.  0.  0.
422  4.21  0.  0.  0.
423  4.22  0.  0.  0.
424  4.23  0.  0.  0.
425  4.24  0.  0.  0.
426  4.25  0.  0.  0.
427  4.26  0.  0.  0.
428  4.27  0.  0.  0.
429  4.28  0.  0.  0.
430  4.29  0.  0.  0.
431  4.30  0.  0.  0.
432  4.31  0.  0.  0.
433  4.32  0.  0.  0.
434  4.33  0.  0.  0.
435  4.34  0.  0.  0.
436  4.35  0.  0.  0.
437  4.36  0.  0.  0.
438  4.37  0.  0.  0.
439  4.38  0.  0.  0.
440  4.39  0.  0.  0.
441  4.40  0.  0.  0.
442  4.41  0.  0.  0.
443  4.42  0.  0.  0.
444  4.43  0.  0.  0.
445  4.44  0.  0.  0.
446  4.45  0.  0.  0.
447  4.46  0.  0.  0.
448  4.47  0.  0.  0.
449  4.48  0.  0.  0.
450  4.49  0.  0.  0.
451  4.50  0.  0.  0.
452  4.51  0.  0.  0.
453  4.52  0.  0.  0.
454  4.53  0.  0.  0.
455  4.54  0.  0.  0.
456  4.55  0.  0.  0.
457  4.56  0.  0.  0.
458  4.57  0.  0.  0.
459  4.58  0.  0.  0.
460  4.59  0.  0.  0.
461  4.60  0.  0.  0.
462  4.61  0.  0.  0.
463  4.62  0.  0.  0.
464  4.63  0.  0.  0.
465  4.64  0.  0.  0.
466  4.65  0.  0.  0.
467  4.66  0.  0.  0.
468  4.67  0.  0.  0.
469  4.68  0.  0.  0.
470  4.69  0.  0.  0.
471  4.70  0.  0.  0.
472  4.71  0.  0.  0.
473  4.72  0.  0.  0.
474  4.73  0.  0.  0.
475  4.74  0.  0.  0.
476  4.75  0.  0.  0.
477  4.76  0.  0.  0.
478  4.77  0.  0.  0.
479  4.78  0.  0.  0.
480  4.79  0.  0.  0.
481  4.80  0.  0.  0.
482  4.81  0.  0.  0.
483  4.82  0.  0.  0.
484  4.83  0.  0.  0.
485  4.84  0.  0.  0.
486  4.85  0.  0.  0.
487  4.86  0.  0.  0.
488  4.87  0.  0.  0.
489  4.88  0.  0.  0.
490  4.89  0.  0.  0.
491  4.90  0.  0.  0.
492  4.91  0.  0.  0.
493  4.92  0.  0.  0.
494  4.93  0.  0.  0.
495  4.94  0.  0.  0.
496  4.95  0.  0.  0.
497  4.96  0.  0.  0.
498  4.97  0.  0.  0.
499  4.98  0.  0.  0.
500  4.99  0.  0.  0.
501  5.00  0.  0.  0.
502  5.01  0.  0.  0.
503  5.02  0.  0.  0.
504  5.03  0.  0.  0.
505  5.04  0.  0.  0.
506  5.05  0.  0.  0.
507  5.06  0.  0.  0.
508  5.07  0.  0.  0.
509  5.08  0.  0.  0.
510  5.09  0.  0.  0.
511  5.10  0.  0.  0.
512  5.11  0.  0.  0.
513  5.12  0.  0.  0.
514  5.13  0.  0.  0.
515  5.14  0.  0.  0.
516  5.15  0.  0.  0.
517  5.16  0.  0.  0.
518  5.17  0.  0.  0.
519  5.18  0.  0.  0.
520  5.19  0.  0.  0.
521  5.20  0.  0.  0.
522  5.21  0.  0.  0.
523  5.22  0.  0.  0.
524  5.23  0.  0.  0.
525  5.24  0.  0.  0.
526  5.25  0.  0.  0.
527  5.26  0.  0.  0.
528  5.27  0.  0.  0.
529  5.28  0.  0.  0.
530  5.29  0.  0.  0.
531  5.30  0.  0.  0.
532  5.31  0.  0.  0.
533  5.32  0.  0.  0.
534  5.33  0.  0.  0.
535  5.34  0.  0.  0.
536  5.35  0.  0.  0.
537  5.36  0.  0.  0.
538  5.37  0.  0.  0.
539  5.38  0.  0.  0.
540  5.39  0.  0.  0.
541  5.40  0.  0.  0.
542  5.41  0.  0.  0.
543  5.42  0.  0.  0.
544  5.43  0.  0.  0.
545  5.44  0.  0.  0.
546  5.45  0.  0.  0.
547  5.46  0.  0.  0.
548  5.47  0.  0.  0.
549  5.48  0.  0.  0.
550  5.49  0.  0.  0.
551  5.50  0.  0.  0.
552  5.51  0.  0.  0.
553  5.52  0.  0.  0.
554  5.53  0.  0.  0.
555  5.54  0.  0.  0.
556  5.55  0.  0.  0.
557  5.56  0.  0.  0.
558  5.57  0.  0.  0.
559  5.58  0.  0.  0.
560  5.59  0.  0.  0.
561  5.60  0.  0.  0.
562  5.61  0.  0.  0.
563  5.62  0.  0.  0.
564  5.63  0.  0.  0.
565  5.64  0.  0.  0.
566  5.65  0.  0.  0.
567  5.66  0.  0.  0.
568  5.67  0.  0.  0.
569  5.68  0.  0.  0.
570  5.69  0.  0.  0.
571  5.70  0.  0.  0.
572  5.71  0.  0.  0.
573  5.72  0.  0.  0.
574  5.73  0.  0.  0.
575  5.74  0.  0.  0.
576  5.75  0.  0.  0.
577  5.76  0.  0.  0.
578  5.77  0.  0.  0.
579  5.78  0.  0.  0.
580  5.79  0.  0.  0.
581  5.80  0.  0.  0.
582  5.81  0.  0.  0.
583  5.82  0.  0.  0.
584  5.83  0.  0.  0.
585  5.84  0.  0.  0.
586  5.85  0.  0.  0.
587  5.86  0.  0.  0.
588  5.87  0.  0.  0.
589  5.88  0.  0.  0.
590  5.89  0.  0.  0.
591  5.90  0.  0.  0.
592  5.91  0.  0.  0.
593  5.92  0.  0.  0.
594  5.93  0.  0.  0.
595  5.94  0.  0.  0.
596  5.95  0.  0.  0.
597  5.96  0.  0.  0.
598  5.97  0.  0.  0.
599  5.98  0.  0.  0.
600  5.99  0.  0.  0.
1                         7.2195718672102E+00 -5.8020431487875E-01
1  0.0000000000000E+00 -6.3003990635746E-09 -2.0377378895375E-08
2  1.0000000000000E-02  2.9472612382787E-03  6.2122243351459E-05
3  2.0000000000000E-02  1.1773387232852E-02  2.5931273738896E-04
4  3.0000000000000E-02  2.6431374099083E-02  6.2363640723502E-04
5  4.0000000000000E-02  4.6842783927946E-02  1.2071935976482E-03
6  5.0000000000000E-02  7.2897612573491E-02  2.0801546220546E-03
7  6.0000000000000E-02  1.0445413389590E-01  3.3280993524140E-03
8  7.0000000000000E-02  1.4133874856145E-01  5.0487496889412E-03
9  8.0000000000000E-02  1.8334587180112E-01  7.3482031260780E-03
10  9.0000000000000E-02  2.3023789960568E-01  1.0336792662546E-02
11  1.0000000000000E-01  2.8174529649243E-01  1.4124711451839E-02
12  1.1000000000000E-01  3.3756685006600E-01  1.8817549435554E-02
13  1.2000000000000E-01  3.9737013800849E-01  2.4511893451839E-02
14  1.3000000000000E-01  4.6079225182104E-01  3.1291141810380E-02
15  1.4000000000000E-01  5.2744081859945E-01  3.9221679059426E-02
16  1.5000000000000E-01  5.9689535741556E-01  4.8349546770201E-02
17  1.6000000000000E-01  6.6870900059921E-01  5.8697731899527E-02
18  1.7000000000000E-01  7.4241060252938E-01  7.0264176065336E-02
19  1.8000000000000E-01  8.1750724964846E-01  8.3020587407097E-02
20  1.9000000000000E-01  8.9348717555163E-01  9.6912112235924E-02
21  2.0000000000000E-01  9.6982307444842E-01  1.1185789712799E-01
22  2.1000000000000E-01  1.0459757953456E+00  1.2775254426898E-01
23  2.2000000000000E-01  1.1213983882752E+00  1.4446843455217E-01
24  2.3000000000000E-01  1.1955404631145E+00  1.6185886502378E-01
25  2.4000000000000E-01  1.2678528113366E+00  1.7976192060960E-01
26  2.5000000000000E-01  1.3377922317058E+00  1.9800497546954E-01
27  2.6000000000000E-01  1.4048264927769E+00  2.1640969758142E-01
28  2.7000000000000E-01  1.4684393583401E+00  2.3479741194550E-01
29  2.8000000000000E-01  1.5281355968965E+00  2.5299466372157E-01
30  2.9000000000000E-01  1.5834458930264E+00  2.7083881313923E-01
31  3.0000000000000E-01  1.6339315772748E+00  2.8818348950641E-01
32  3.1000000000000E-01  1.6791890919768E+00  3.0490373228381E-01
33  3.2000000000000E-01  1.7188541133228E+00  3.2090065304557E-01
34  3.3000000000000E-01  1.7526052548694E+00  3.3610546310782E-01
35  3.4000000000000E-01  1.7801672845436E+00  3.5048272742000E-01
36  3.5000000000000E-01  1.8013137958119E+00  3.6403272557740E-01
37  3.6000000000000E-01  1.8158692838958E+00  3.7679282498653E-01
38  3.7000000000000E-01  1.8237105894451E+00  3.8883779863506E-01
39  3.8000000000000E-01  1.8247676846601E+00  4.0027904981716E-01
40  3.9000000000000E-01  1.8190237901390E+00  4.1126273769098E-01
41  4.0000000000000E-01  1.8065148243871E+00  4.2196682978747E-01
42  4.1000000000000E-01  1.7873282015929E+00  4.3259713960232E-01
43  4.2000000000000E-01  1.7616010065889E+00  4.4338243823650E-01
44  4.3000000000000E-01  1.7295175885178E+00  4.5456875777429E-01
45  4.4000000000000E-01  1.6913066262806E+00  4.6641302982348E-01
46  4.5000000000000E-01  1.6472377290322E+00  4.7917622458500E-01
47  4.6000000000000E-01  1.5976176435488E+00  4.9311617326808E-01
48  4.7000000000000E-01  1.5427861469790E+00  5.0848026904048E-01
49  4.8000000000000E-01  1.4831117081361E+00  5.2549824856591E-01
50  4.9000000000000E-01  1.4189870029647E+00  5.4437525724955E-01
51  5.0000000000000E-01  1.3508243700688E+00  5.6528539647581E-01
52  5.1000000000000E-01  1.2790512902205E+00  5.8836594043713E-01
53  5.2000000000000E-01  1.2041059696444E+00  6.1371239385473E-01
54  5.3000000000000E-01  1.1264331007328E+00  6.4137454038045E-01
55  5.4000000000000E-01  1.0464798658722E+00  6.7135360530834E-01
56  5.5000000000000E-01  9.6469224049916E-01  7.0360062611956E-01
57  5.6000000000000E-01  8.8151164065247E-01  7.3801609117117E-01
58  5.7000000000000E-01  7.9737194846331E-01  7.7445087145217E-01
59  5.8000000000000E-01  7.1269693660452E-01  8.1270843378615E-01
60  5.9000000000000E-01  6.2789810006704E-01  8.5254828721883E-01
61  6.0000000000000E-01  5.4337289114044E-01  8.9369057867109E-01
62  6.1000000000000E-01  4.5950334152443E-01  9.3582172032901E-01
63  6.2000000000000E-01  3.7665504445470E-01  9.7860090069839E-01
64  6.3000000000000E-01  2.9517645992883E-01  1.0216673047139E+00
65  6.4000000000000E-01  2.1539849786710E-01  1.0646478465962E+00
66  6.5000000000000E-01  1.3763432759181E-01  1.1071652029914E+00
67  6.6000000000000E-01  6.2179357556294E-02  1.1488459238566E+00
68  6.7000000000000E-01 -1.0688673064650E-02  1.1893283949331E+00
69  6.8000000000000E-01 -8.0709549427003E-02  1.2282704286683E+00
70  6.9000000000000E-01 -1.4764043913213E-01  1.2653562700846E+00
71  7.0000000000000E-01 -2.1125580560929E-01  1.3003028201397E+00
72  7.1000000000000E-01 -2.7134742276879E-01  1.3328649011732E+00
73  7.2000000000000E-01 -3.2772452894521E-01  1.3628394164889E+00
74  7.3000000000000E-01 -3.8021414865080E-01  1.3900682882287E+00
75  7.4000000000000E-01 -4.2866159996405E-01  1.4144400935312E+00
76  7.5000000000000E-01 -4.7293119384927E-01  1.4358903575046E+00
77  7.6000000000000E-01 -5.1290711973246E-01  1.4544005016542E+00
78  7.7000000000000E-01 -5.4849449966166E-01  1.4699954868893E+00
79  7.8000000000000E-01 -5.7962058177753E-01  1.4827402298811E+00
80  7.9000000000000E-01 -6.0623603302628E-01  1.4927349091448E+00
81  8.0000000000000E-01 -6.2831628145993E-01  1.5001093116112E+00
82  8.1000000000000E-01 -6.4586285045073E-01  1.5050164005592E+00
83  8.2000000000000E-01 -6.5890462101920E-01  1.5076253106364E+00
84  8.3000000000000E-01 -6.6749895450264E-01  1.5081139944866E+00
85  8.4000000000000E-01 -6.7173260617526E-01  1.5066617575783E+00
86  8.5000000000000E-01 -6.7172236130104E-01  1.5034419227528E+00
87  8.6000000000000E-01 -6.6761532850954E-01  1.4986148635298E+00
88  8.7000000000000E-01 -6.5958883130382E-01  1.4923216353153E+00
89  8.8000000000000E-01 -6.4784984683207E-01  1.4846784165557E+00
90  8.9000000000000E-01 -6.3263395159020E-01  1.4757719479972E+00
91  9.0000000000000E-01 -6.1420374621082E-01  1.4656561281862E+00
92  9.1000000000000E-01 -5.9284674560211E-01  1.4543498880134E+00
93  9.2000000000000E-01 -5.6887273603711E-01  1.4418364274730E+00
94  9.3000000000000E-01 -5.4261061691913E-01  1.4280638550339E+00
95  9.4000000000000E-01 -5.1440476138453E-01  1.4129472253662E+00
96  9.5000000000000E-01 -4.8461094614399E-01  1.3963719259963E+00
97  9.6000000000000E-01 -4.5359191650263E-01  1.3781983191422E+00
98  9.7000000000000E-01 -4.2171266682013E-01  1.3582675029358E+00
99  9.8000000000000E-01 -3.8933552929226E-01  1.3364080177995E+00
100  9.9000000000000E-01 -3.5681517439318E-01  1.3124432902166E+00
101  1.0000000000000E+00 -3.2449363420725E-01  1.2861995786819E+00
102  1.0100000000000E+00 -2.9269546484370E-01  1.2575141662708E+00
103  1.0200000000000E+00 -2.6172316587894E-01  1.2262435319133E+00
104  1.0300000000000E+00 -2.3185297311222E-01  1.1922712287194E+00
105  1.0400000000000E+00 -2.0333113570621E-01  1.1555152030897E+00
106  1.0500000000000E+00 -1.7637077998681E-01  1.1159343030548E+00
107  1.0600000000000E+00 -1.5114944985240E-01  1.0735337482967E+00
108  1.0700000000000E+00 -1.2780739797847E-01  1.0283693675040E+00
109  1.0800000000000E+00 -1.0644668310143E-01  9.8055045044234E-01
110  1.0900000000000E+00 -8.7131106816059E-02  9.3024111197275E-01
111  1.1000000000000E+00 -6.9886998976835E-02  8.7766012216538E-01
112  1.1100000000000E+00 -5.4704834350155E-02  8.2307921968672E-01
113  1.1200000000000E+00 -4.1541635043754E-02  7.6681999375906E-01
114  1.1300000000000E+00 -3.0324084108924E-02  7.0924949155741E-01
115  1.1400000000000E+00 -2.0952245865998E-02  6.5077478217792E-01