Ac    ONCVPSP-4.0.1  r_core=   1.30140   1.30140   1.40664   1.55722
89.0000     29.0000      230612    zatom,zion,pspd
8      11   3     4   600     0    pspcod,pspxc,lmax,lloc,mmax,r2well
5.99000000  5.00000000  0.00000000    rchrg fchrg qchrg
3     3     3     1    nproj
3     1           extension_switch
4     4     2    nprojso
0                         2.3583981466174E+01  2.5371765010880E+00 -7.3441731677665E-01
1  0.0000000000000E+00 -4.1090612912242E-08  1.4152003602330E-07  8.1715732513921E-09
2  1.0000000000000E-02  1.3474992000887E-01 -8.2018141239049E-02  2.1353058774915E-02
3  2.0000000000000E-02  2.6859293897878E-01 -1.6223647619633E-01  4.2694013201079E-02
4  3.0000000000000E-02  4.0063641651328E-01 -2.3889945071434E-01  6.4008611672733E-02
5  4.0000000000000E-02  5.3001586163643E-01 -3.1033874468542E-01  8.5278386084773E-02
6  5.0000000000000E-02  6.5590808894812E-01 -3.7501375181487E-01  1.0647873643531E-01
7  6.0000000000000E-02  7.7754330327119E-01 -4.3154840056585E-01  1.2757724079194E-01
8  7.0000000000000E-02  8.9421580587547E-01 -4.7876326971774E-01  1.4853225581587E-01
9  8.0000000000000E-02  1.0052930564542E+00 -5.1570209348941E-01  1.6929186486638E-01
10  9.0000000000000E-02  1.1102228739820E+00 -5.4165191982445E-01  1.8979322090531E-01
11  1.0000000000000E-01  1.2085386149057E+00 -5.5615637607587E-01  2.0996232024558E-01
12  1.1000000000000E-01  1.2998622271117E+00 -5.5902170316479E-01  2.2971423093404E-01
13  1.2000000000000E-01  1.3839051409554E+00 -5.5031543602832E-01  2.4895378655160E-01
14  1.3000000000000E-01  1.4604670223906E+00 -5.3035782822560E-01  2.6757674279627E-01
15  1.4000000000000E-01  1.5294324759703E+00 -4.9970633524516E-01  2.8547138074319E-01
16  1.5000000000000E-01  1.5907658452735E+00 -4.5913367776523E-01  3.0252052750823E-01
17  1.6000000000000E-01  1.6445043133325E+00 -4.0960019658070E-01  3.1860395252840E-01
18  1.7000000000000E-01  1.6907495542014E+00 -3.5222137933878E-01  3.3360108614809E-01
19  1.8000000000000E-01  1.7296582274561E+00 -2.8823158051460E-01  3.4739399697503E-01
20  1.9000000000000E-01  1.7614316388917E+00 -2.1894506592343E-01  3.5987055581879E-01
21  2.0000000000000E-01  1.7863049120575E+00 -1.4571558819192E-01  3.7092770718632E-01
22  2.1000000000000E-01  1.8045360258785E+00 -6.9895737735932E-02  3.8047476447104E-01
23  2.2000000000000E-01  1.8163950731585E+00  7.2026862008695E-03  3.8843664227441E-01
24  2.3000000000000E-01  1.8221540832745E+00  8.4346077974449E-02  3.9475693882394E-01
25  2.4000000000000E-01  1.8220777302220E+00  1.6041306990623E-01  3.9940078322623E-01
26  2.5000000000000E-01  1.8164152150586E+00  2.3442419655600E-01  4.0235736628494E-01
27  2.6000000000000E-01  1.8053935707345E+00  3.0556629749661E-01  4.0364207973298E-01
28  2.7000000000000E-01  1.7892125885681E+00  3.7321094462321E-01  4.0329819683065E-01
29  2.8000000000000E-01  1.7680415107567E+00  4.3692636908651E-01  4.0139803717141E-01
30  2.9000000000000E-01  1.7420175740148E+00  4.9648256779697E-01  3.9804356997194E-01
31  3.0000000000000E-01  1.7112464275546E+00  5.5184948379810E-01  3.9336642282148E-01
32  3.1000000000000E-01  1.6758043861086E+00  6.0318837202249E-01  3.8752727651003E-01
33  3.2000000000000E-01  1.6357424174804E+00  6.5083667537113E-01  3.8071464080820E-01
34  3.3000000000000E-01  1.5910917061258E+00  6.9528693908388E-01  3.7314302057438E-01
35  3.4000000000000E-01  1.5418705813130E+00  7.3716047777932E-01  3.6505049595680E-01
36  3.5000000000000E-01  1.4880925521609E+00  7.7717667357853E-01  3.5669575437660E-01
37  3.6000000000000E-01  1.4297751537498E+00  8.1611892035267E-01  3.4835462507547E-01
38  3.7000000000000E-01  1.3669492797499E+00  8.5479833414217E-01  3.4031617895941E-01
39  3.8000000000000E-01  1.2996686585231E+00  8.9401641997720E-01  3.3287846697044E-01
40  3.9000000000000E-01  1.2280191220222E+00  9.3452791850654E-01  3.2634397900725E-01
41  4.0000000000000E-01  1.1521273202961E+00  9.7700505104826E-01  3.2101491227893E-01
42  4.1000000000000E-01  1.0721685489117E+00  1.0220043390374E+00  3.1718834274037E-01
43  4.2000000000000E-01  9.8837338171146E-01  1.0699370947230E+00  3.1515139581079E-01
44  4.3000000000000E-01  9.0103283625793E-01  1.1210445668074E+00  3.1517651285913E-01
45  4.4000000000000E-01  8.1050184302136E-01  1.1753785810410E+00  3.1751690794938E-01
46  4.5000000000000E-01  7.1720084050518E-01  1.2327883460174E+00  3.2240230513275E-01
47  4.6000000000000E-01  6.2161537549057E-01  1.2929139038431E+00  3.3003504026605E-01
48  4.7000000000000E-01  5.2429364868336E-01  1.3551864998328E+00  3.4058660308928E-01
49  4.8000000000000E-01  4.2584200936382E-01  1.4188359312825E+00  3.5419468532920E-01
50  4.9000000000000E-01  3.2691846623053E-01  1.4829047192940E+00  3.7096078916323E-01
51  5.0000000000000E-01  2.2822434353193E-01  1.5462687362100E+00  3.9094843777468E-01
52  5.1000000000000E-01  1.3049426987920E-01  1.6076637210024E+00  4.1418201627794E-01
53  5.2000000000000E-01  3.4484740042064E-02  1.6657169320484E+00  4.4064625733124E-01
54  5.3000000000000E-01 -5.9038464089253E-02  1.7189830267562E+00  4.7028637163773E-01
55  5.4000000000000E-01 -1.4931366974915E-01  1.7659831253399E+00  5.0300880961680E-01
56  5.5000000000000E-01 -2.3559717526225E-01  1.8052459156823E+00  5.3868262715168E-01
57  5.6000000000000E-01 -3.1717720882336E-01  1.8353495907048E+00  5.7714141581621E-01
58  5.7000000000000E-01 -3.9338760873182E-01  1.8549633808958E+00  6.1818574665630E-01
59  5.8000000000000E-01 -4.6362085442160E-01  1.8628874534194E+00  6.6158606671920E-01
60  5.9000000000000E-01 -5.2734009333175E-01  1.8580899951681E+00  7.0708597931825E-01
61  6.0000000000000E-01 -5.8408983486804E-01  1.8397403786921E+00  7.5440583267293E-01
62  6.1000000000000E-01 -6.3350501860317E-01  1.8072374245172E+00  8.0324653720905E-01
63  6.2000000000000E-01 -6.7531820833548E-01  1.7602319173240E+00  8.5329352951939E-01
64  6.3000000000000E-01 -7.0936471530034E-01  1.6986427022578E+00  9.0422080079383E-01
65  6.4000000000000E-01 -7.3558551112066E-01  1.6226658760193E+00  9.5569490939823E-01
66  6.5000000000000E-01 -7.5402785223470E-01  1.5327767894837E+00  1.0073789011240E+00
67  6.6000000000000E-01 -7.6484360069336E-01  1.4297247881775E+00  1.0589360663059E+00
68  6.7000000000000E-01 -7.6828528946069E-01  1.3145208275813E+00  1.1100334703288E+00
69  6.8000000000000E-01 -7.6470004177796E-01  1.1884183054864E+00  1.1603452027780E+00
70  6.9000000000000E-01 -7.5452151193752E-01  1.0528876473359E+00  1.2095553003783E+00
71  7.0000000000000E-01 -7.3826006724619E-01  9.0958535680161E-01  1.2573603096043E+00
72  7.1000000000000E-01 -7.1649147652377E-01  7.6031839759942E-01  1.3034714661284E+00
73  7.2000000000000E-01 -6.8984440787769E-01  6.0700489925896E-01  1.3476164797676E+00
74  7.3000000000000E-01 -6.5898706669559E-01  4.5163227566625E-01  1.3895409249694E+00
75  7.4000000000000E-01 -6.2461332306264E-01  2.9621390809112E-01  1.4290092478259E+00
76  7.5000000000000E-01 -5.8742868572937E-01  1.4274557258422E-01  1.4658054108013E+00
77  7.6000000000000E-01 -5.4813647722980E-01 -6.8372153749759E-03  1.4997332055405E+00
78  7.7000000000000E-01 -5.0742455201893E-01 -1.5069980758617E-01  1.5306162720228E+00
79  7.8000000000000E-01 -4.6595287710540E-01 -2.8714592406080E-01  1.5582978687420E+00
80  7.9000000000000E-01 -4.2434226344503E-01 -4.1465109533887E-01  1.5826404433457E+00
81  8.0000000000000E-01 -3.8316449742850E-01 -5.3189122406462E-01  1.6035250561521E+00
82  8.1000000000000E-01 -3.4293407647334E-01 -6.3776559642475E-01  1.6208507100964E+00
83  8.2000000000000E-01 -3.0410170251011E-01 -7.3141384380782E-01  1.6345336399388E+00
84  8.3000000000000E-01 -2.6704963366482E-01 -8.1222653636037E-01  1.6445066110287E+00
85  8.4000000000000E-01 -2.3208893937688E-01 -8.7984927729480E-01  1.6507182736531E+00
86  8.5000000000000E-01 -1.9945864926644E-01 -9.3418035404490E-01  1.6531326131506E+00
87  8.6000000000000E-01 -1.6932673294389E-01 -9.7536218400746E-01  1.6517285287323E+00
88  8.7000000000000E-01 -1.4179279821042E-01 -1.0037669632671E+00  1.6464995655385E+00
89  8.8000000000000E-01 -1.1689235016287E-01 -1.0199770814651E+00  1.6374538151608E+00
90  8.9000000000000E-01 -9.4602414826414E-02 -1.0247610005372E+00  1.6246139899388E+00
91  9.0000000000000E-01 -7.4848299113098E-02 -1.0190454058518E+00  1.6080176661379E+00
92  9.1000000000000E-01 -5.7511234905799E-02 -1.0038845225945E+00  1.5877176809351E+00
93  9.2000000000000E-01 -4.2436639388272E-02 -9.8042754624482E-01  1.5637826583271E+00
94  9.3000000000000E-01 -2.9442716592828E-02 -9.4988516280023E-01  1.5362976299444E+00
95  9.4000000000000E-01 -1.8329126456402E-02 -9.1349613205278E-01  1.5053647086277E+00
96  9.5000000000000E-01 -8.8854571165044E-03 -8.7249487671236E-01  1.4711037657834E+00
97  9.6000000000000E-01 -8.9925317316742E-04 -8.2808096325649E-01  1.4336530582615E+00
98  9.7000000000000E-01  5.8366236253970E-03 -7.8139127967143E-01  1.3931697470127E+00
99  9.8000000000000E-01  1.1517495318744E-02 -7.3347561387860E-01  1.3498302482946E+00
100  9.9000000000000E-01  1.6321390214797E-02 -6.8527621835242E-01  1.3038303588491E+00
101  1.0000000000000E+00  2.0404709294467E-02 -6.3761181520316E-01  1.2553850993922E+00
102  1.0100000000000E+00  2.3899119215818E-02 -5.9116635601892E-01  1.2047282259973E+00
103  1.0200000000000E+00  2.6909713994974E-02 -5.4648270627704E-01  1.1521113665481E+00
104  1.0300000000000E+00  2.9514447151534E-02 -5.0396127922025E-01  1.0978027493440E+00
105  1.0400000000000E+00  3.1764797155540E-02 -4.6386350223614E-01  1.0420855031246E+00
106  1.0500000000000E+00  3.3687592434817E-02 -4.2631986356531E-01  9.8525552210307E-01
107  1.0600000000000E+00  3.5287888679830E-02 -3.9134216099400E-01  9.2761890593145E-01
108  1.0700000000000E+00  3.6552761231054E-02 -3.5883945889551E-01  8.6948900272351E-01
109  1.0800000000000E+00  3.7455849337628E-02 -3.2863715710156E-01  8.1118310305536E-01
110  1.0900000000000E+00  3.7962466914447E-02 -3.0049848430014E-01  7.5301885413874E-01
111  1.1000000000000E+00  3.8035075979787E-02 -2.7414764984953E-01  6.9531048578888E-01
112  1.1100000000000E+00  3.7638903630956E-02 -2.4929381925023E-01  6.3836496318514E-01
113  1.1200000000000E+00  3.6747470453448E-02 -2.2565501768062E-01  5.8247820554007E-01
114  1.1300000000000E+00  3.5347786674775E-02 -2.0298100998537E-01  5.2793153427951E-01
115  1.1400000000000E+00  3.3444960846019E-02 -1.8107414996202E-01  4.7498853915498E-01
116  1.1500000000000E+00  3.1065953063102E-02 -1.5980713275983E-01  4.2389257536276E-01
117  1.1600000000000E+00  2.8262188959789E-02 -1.3913651577736E-01  3.7486512931981E-01
118  1.1700000000000E+00  2.5110730455073E-02 -1.1911079112179E-01  3.2810531472314E-01
119  1.1800000000000E+00  2.1713672464687E-02 -9.9871689589911E-02  2.8379078401327E-01
120  1.1900000000000E+00  1.8195399954090E-02 -8.1647267400909E-02  2.4208036296742E-01
121  1.2000000000000E+00  1.4697294860080E-02 -6.4735166046495E-02  2.0311873787079E-01
122  1.2100000000000E+00  1.1369425644239E-02 -4.9474236401547E-02  1.6704354542595E-01
123  1.2200000000000E+00  8.3586207603430E-03 -3.6202292323447E-02  1.3399520084861E-01
124  1.2300000000000E+00  5.7927815746532E-03 -2.5199053329403E-02  1.0413015325501E-01
125  1.2400000000000E+00  3.7473412908268E-03 -1.6571902210398E-02  7.7629574677984E-02
126  1.2500000000000E+00  2.1538805018722E-03 -9.9655692466558E-03  5.4673457103701E-02
127  1.2600000000000E+00  1.0162560009298E-03 -5.2303465941119E-03  3.5525467855399E-02
128  1.2700000000000E+00  3.2319348999888E-04 -2.2054686337525E-03  2.0399774406072E-02
129  1.2800000000000E+00  9.3912788154157E-06 -6.0901932976323E-04  9.4282690445492E-03
130  1.2900000000000E+00 -4.1779107897584E-05 -4.4513107309583E-05  2.6353214061373E-03
131  1.3000000000000E+00 -3.0814489939335E-06  3.3882021850503E-06  8.3786360227315E-05
132  1.3100000000000E+00 -2.3168803367576E-07  2.0951502178503E-07  7.1619560141097E-06
133  1.3200000000000E+00  7.1444259873486E-08 -1.1544938071552E-08 -3.0789257678225E-06
134  1.33  0.  0.  0.
135  1.34  0.  0.  0.
136  1.35  0.  0.  0.
137  1.36  0.  0.  0.
138  1.37  0.  0.  0.
139  1.38  0.  0.  0.
140  1.39  0.  0.  0.
141  1.40  0.  0.  0.
142  1.41  0.  0.  0.
143  1.42  0.  0.  0.
144  1.43  0.  0.  0.
145  1.44  0.  0.  0.
146  1.45  0.  0.  0.
147  1.46  0.  0.  0.
148  1.47  0.  0.  0.
149  1.48  0.  0.  0.
150  1.49  0.  0.  0.
151  1.50  0.  0.  0.
152  1.51  0.  0.  0.
153  1.52  0.  0.  0.
154  1.53  0.  0.  0.
155  1.54  0.  0.  0.
156  1.55  0.  0.  0.
157  1.56  0.  0.  0.
158  1.57  0.  0.  0.
159  1.58  0.  0.  0.
160  1.59  0.  0.  0.
161  1.60  0.  0.  0.
162  1.61  0.  0.  0.
163  1.62  0.  0.  0.
164  1.63  0.  0.  0.
165  1.64  0.  0.  0.
166  1.65  0.  0.  0.
167  1.66  0.  0.  0.
168  1.67  0.  0.  0.
169  1.68  0.  0.  0.
170  1.69  0.  0.  0.
171  1.70  0.  0.  0.
172  1.71  0.  0.  0.
173  1.72  0.  0.  0.
174  1.73  0.  0.  0.
175  1.74  0.  0.  0.
176  1.75  0.  0.  0.
177  1.76  0.  0.  0.
178  1.77  0.  0.  0.
179  1.78  0.  0.  0.
180  1.79  0.  0.  0.
181  1.80  0.  0.  0.
182  1.81  0.  0.  0.
183  1.82  0.  0.  0.
184  1.83  0.  0.  0.
185  1.84  0.  0.  0.
186  1.85  0.  0.  0.
187  1.86  0.  0.  0.
188  1.87  0.  0.  0.
189  1.88  0.  0.  0.
190  1.89  0.  0.  0.
191  1.90  0.  0.  0.
192  1.91  0.  0.  0.
193  1.92  0.  0.  0.
194  1.93  0.  0.  0.
195  1.94  0.  0.  0.
196  1.95  0.  0.  0.
197  1.96  0.  0.  0.
198  1.97  0.  0.  0.
199  1.98  0.  0.  0.
200  1.99  0.  0.  0.
201  2.00  0.  0.  0.
202  2.01  0.  0.  0.
203  2.02  0.  0.  0.
204  2.03  0.  0.  0.
205  2.04  0.  0.  0.
206  2.05  0.  0.  0.
207  2.06  0.  0.  0.
208  2.07  0.  0.  0.
209  2.08  0.  0.  0.
210  2.09  0.  0.  0.
211  2.10  0.  0.  0.
212  2.11  0.  0.  0.
213  2.12  0.  0.  0.
214  2.13  0.  0.  0.
215  2.14  0.  0.  0.
216  2.15  0.  0.  0.
217  2.16  0.  0.  0.
218  2.17  0.  0.  0.
219  2.18  0.  0.  0.
220  2.19  0.  0.  0.
221  2.20  0.  0.  0.
222  2.21  0.  0.  0.
223  2.22  0.  0.  0.
224  2.23  0.  0.  0.
225  2.24  0.  0.  0.
226  2.25  0.  0.  0.
227  2.26  0.  0.  0.
228  2.27  0.  0.  0.
229  2.28  0.  0.  0.
230  2.29  0.  0.  0.
231  2.30  0.  0.  0.
232  2.31  0.  0.  0.
233  2.32  0.  0.  0.
234  2.33  0.  0.  0.
235  2.34  0.  0.  0.
236  2.35  0.  0.  0.
237  2.36  0.  0.  0.
238  2.37  0.  0.  0.
239  2.38  0.  0.  0.
240  2.39  0.  0.  0.
241  2.40  0.  0.  0.
242  2.41  0.  0.  0.
243  2.42  0.  0.  0.
244  2.43  0.  0.  0.
245  2.44  0.  0.  0.
246  2.45  0.  0.  0.
247  2.46  0.  0.  0.
248  2.47  0.  0.  0.
249  2.48  0.  0.  0.
250  2.49  0.  0.  0.
251  2.50  0.  0.  0.
252  2.51  0.  0.  0.
253  2.52  0.  0.  0.
254  2.53  0.  0.  0.
255  2.54  0.  0.  0.
256  2.55  0.  0.  0.
257  2.56  0.  0.  0.
258  2.57  0.  0.  0.
259  2.58  0.  0.  0.
260  2.59  0.  0.  0.
261  2.60  0.  0.  0.
262  2.61  0.  0.  0.
263  2.62  0.  0.  0.
264  2.63  0.  0.  0.
265  2.64  0.  0.  0.
266  2.65  0.  0.  0.
267  2.66  0.  0.  0.
268  2.67  0.  0.  0.
269  2.68  0.  0.  0.
270  2.69  0.  0.  0.
271  2.70  0.  0.  0.
272  2.71  0.  0.  0.
273  2.72  0.  0.  0.
274  2.73  0.  0.  0.
275  2.74  0.  0.  0.
276  2.75  0.  0.  0.
277  2.76  0.  0.  0.
278  2.77  0.  0.  0.
279  2.78  0.  0.  0.
280  2.79  0.  0.  0.
281  2.80  0.  0.  0.
282  2.81  0.  0.  0.
283  2.82  0.  0.  0.
284  2.83  0.  0.  0.
285  2.84  0.  0.  0.
286  2.85  0.  0.  0.
287  2.86  0.  0.  0.
288  2.87  0.  0.  0.
289  2.88  0.  0.  0.
290  2.89  0.  0.  0.
291  2.90  0.  0.  0.
292  2.91  0.  0.  0.
293  2.92  0.  0.  0.
294  2.93  0.  0.  0.
295  2.94  0.  0.  0.
296  2.95  0.  0.  0.
297  2.96  0.  0.  0.
298  2.97  0.  0.  0.
299  2.98  0.  0.  0.
300  2.99  0.  0.  0.
301  3.00  0.  0.  0.
302  3.01  0.  0.  0.
303  3.02  0.  0.  0.
304  3.03  0.  0.  0.
305  3.04  0.  0.  0.
306  3.05  0.  0.  0.
307  3.06  0.  0.  0.
308  3.07  0.  0.  0.
309  3.08  0.  0.  0.
310  3.09  0.  0.  0.
311  3.10  0.  0.  0.
312  3.11  0.  0.  0.
313  3.12  0.  0.  0.
314  3.13  0.  0.  0.
315  3.14  0.  0.  0.
316  3.15  0.  0.  0.
317  3.16  0.  0.  0.
318  3.17  0.  0.  0.
319  3.18  0.  0.  0.
320  3.19  0.  0.  0.
321  3.20  0.  0.  0.
322  3.21  0.  0.  0.
323  3.22  0.  0.  0.
324  3.23  0.  0.  0.
325  3.24  0.  0.  0.
326  3.25  0.  0.  0.
327  3.26  0.  0.  0.
328  3.27  0.  0.  0.
329  3.28  0.  0.  0.
330  3.29  0.  0.  0.
331  3.30  0.  0.  0.
332  3.31  0.  0.  0.
333  3.32  0.  0.  0.
334  3.33  0.  0.  0.
335  3.34  0.  0.  0.
336  3.35  0.  0.  0.
337  3.36  0.  0.  0.
338  3.37  0.  0.  0.
339  3.38  0.  0.  0.
340  3.39  0.  0.  0.
341  3.40  0.  0.  0.
342  3.41  0.  0.  0.
343  3.42  0.  0.  0.
344  3.43  0.  0.  0.
345  3.44  0.  0.  0.
346  3.45  0.  0.  0.
347  3.46  0.  0.  0.
348  3.47  0.  0.  0.
349  3.48  0.  0.  0.
350  3.49  0.  0.  0.
351  3.50  0.  0.  0.
352  3.51  0.  0.  0.
353  3.52  0.  0.  0.
354  3.53  0.  0.  0.
355  3.54  0.  0.  0.
356  3.55  0.  0.  0.
357  3.56  0.  0.  0.
358  3.57  0.  0.  0.
359  3.58  0.  0.  0.
360  3.59  0.  0.  0.
361  3.60  0.  0.  0.
362  3.61  0.  0.  0.
363  3.62  0.  0.  0.
364  3.63  0.  0.  0.
365  3.64  0.  0.  0.
366  3.65  0.  0.  0.
367  3.66  0.  0.  0.
368  3.67  0.  0.  0.
369  3.68  0.  0.  0.
370  3.69  0.  0.  0.
371  3.70  0.  0.  0.
372  3.71  0.  0.  0.
373  3.72  0.  0.  0.
374  3.73  0.  0.  0.
375  3.74  0.  0.  0.
376  3.75  0.  0.  0.
377  3.76  0.  0.  0.
378  3.77  0.  0.  0.
379  3.78  0.  0.  0.
380  3.79  0.  0.  0.
381  3.80  0.  0.  0.
382  3.81  0.  0.  0.
383  3.82  0.  0.  0.
384  3.83  0.  0.  0.
385  3.84  0.  0.  0.
386  3.85  0.  0.  0.
387  3.86  0.  0.  0.
388  3.87  0.  0.  0.
389  3.88  0.  0.  0.
390  3.89  0.  0.  0.
391  3.90  0.  0.  0.
392  3.91  0.  0.  0.
393  3.92  0.  0.  0.
394  3.93  0.  0.  0.
395  3.94  0.  0.  0.
396  3.95  0.  0.  0.
397  3.96  0.  0.  0.
398  3.97  0.  0.  0.
399  3.98  0.  0.  0.
400  3.99  0.  0.  0.
401  4.00  0.  0.  0.
402  4.01  0.  0.  0.
403  4.02  0.  0.  0.
404  4.03  0.  0.  0.
405  4.04  0.  0.  0.
406  4.05  0.  0.  0.
407  4.06  0.  0.  0.
408  4.07  0.  0.  0.
409  4.08  0.  0.  0.
410  4.09  0.  0.  0.
411  4.10  0.  0.  0.
412  4.11  0.  0.  0.
413  4.12  0.  0.  0.
414  4.13  0.  0.  0.
415  4.14  0.  0.  0.
416  4.15  0.  0.  0.
417  4.16  0.  0.  0.
418  4.17  0.  0.  0.
419  4.18  0.  0.  0.
420  4.19  0.  0.  0.
421  4.20  0.  0.  0.
422  4.21  0.  0.  0.
423  4.22  0.  0.  0.
424  4.23  0.  0.  0.
425  4.24  0.  0.  0.
426  4.25  0.  0.  0.
427  4.26  0.  0.  0.
428  4.27  0.  0.  0.
429  4.28  0.  0.  0.
430  4.29  0.  0.  0.
431  4.30  0.  0.  0.
432  4.31  0.  0.  0.
433  4.32  0.  0.  0.
434  4.33  0.  0.  0.
435  4.34  0.  0.  0.
436  4.35  0.  0.  0.
437  4.36  0.  0.  0.
438  4.37  0.  0.  0.
439  4.38  0.  0.  0.
440  4.39  0.  0.  0.
441  4.40  0.  0.  0.
442  4.41  0.  0.  0.
443  4.42  0.  0.  0.
444  4.43  0.  0.  0.
445  4.44  0.  0.  0.
446  4.45  0.  0.  0.
447  4.46  0.  0.  0.
448  4.47  0.  0.  0.
449  4.48  0.  0.  0.
450  4.49  0.  0.  0.
451  4.50  0.  0.  0.
452  4.51  0.  0.  0.
453  4.52  0.  0.  0.
454  4.53  0.  0.  0.
455  4.54  0.  0.  0.
456  4.55  0.  0.  0.
457  4.56  0.  0.  0.
458  4.57  0.  0.  0.
459  4.58  0.  0.  0.
460  4.59  0.  0.  0.
461  4.60  0.  0.  0.
462  4.61  0.  0.  0.
463  4.62  0.  0.  0.
464  4.63  0.  0.  0.
465  4.64  0.  0.  0.
466  4.65  0.  0.  0.
467  4.66  0.  0.  0.
468  4.67  0.  0.  0.
469  4.68  0.  0.  0.
470  4.69  0.  0.  0.
471  4.70  0.  0.  0.
472  4.71  0.  0.  0.
473  4.72  0.  0.  0.
474  4.73  0.  0.  0.
475  4.74  0.  0.  0.
476  4.75  0.  0.  0.
477  4.76  0.  0.  0.
478  4.77  0.  0.  0.
479  4.78  0.  0.  0.
480  4.79  0.  0.  0.
481  4.80  0.  0.  0.
482  4.81  0.  0.  0.
483  4.82  0.  0.  0.
484  4.83  0.  0.  0.
485  4.84  0.  0.  0.
486  4.85  0.  0.  0.
487  4.86  0.  0.  0.
488  4.87  0.  0.  0.
489  4.88  0.  0.  0.
490  4.89  0.  0.  0.
491  4.90  0.  0.  0.
492  4.91  0.  0.  0.
493  4.92  0.  0.  0.
494  4.93  0.  0.  0.
495  4.94  0.  0.  0.
496  4.95  0.  0.  0.
497  4.96  0.  0.  0.
498  4.97  0.  0.  0.
499  4.98  0.  0.  0.
500  4.99  0.  0.  0.
501  5.00  0.  0.  0.
502  5.01  0.  0.  0.
503  5.02  0.  0.  0.
504  5.03  0.  0.  0.
505  5.04  0.  0.  0.
506  5.05  0.  0.  0.
507  5.06  0.  0.  0.
508  5.07  0.  0.  0.
509  5.08  0.  0.  0.
510  5.09  0.  0.  0.
511  5.10  0.  0.  0.
512  5.11  0.  0.  0.
513  5.12  0.  0.  0.
514  5.13  0.  0.  0.
515  5.14  0.  0.  0.
516  5.15  0.  0.  0.
517  5.16  0.  0.  0.
518  5.17  0.  0.  0.
519  5.18  0.  0.  0.
520  5.19  0.  0.  0.
521  5.20  0.  0.  0.
522  5.21  0.  0.  0.
523  5.22  0.  0.  0.
524  5.23  0.  0.  0.
525  5.24  0.  0.  0.
526  5.25  0.  0.  0.
527  5.26  0.  0.  0.
528  5.27  0.  0.  0.
529  5.28  0.  0.  0.
530  5.29  0.  0.  0.
531  5.30  0.  0.  0.
532  5.31  0.  0.  0.
533  5.32  0.  0.  0.
534  5.33  0.  0.  0.
535  5.34  0.  0.  0.
536  5.35  0.  0.  0.
537  5.36  0.  0.  0.
538  5.37  0.  0.  0.
539  5.38  0.  0.  0.
540  5.39  0.  0.  0.
541  5.40  0.  0.  0.
542  5.41  0.  0.  0.
543  5.42  0.  0.  0.
544  5.43  0.  0.  0.
545  5.44  0.  0.  0.
546  5.45  0.  0.  0.
547  5.46  0.  0.  0.
548  5.47  0.  0.  0.
549  5.48  0.  0.  0.
550  5.49  0.  0.  0.
551  5.50  0.  0.  0.
552  5.51  0.  0.  0.
553  5.52  0.  0.  0.
554  5.53  0.  0.  0.
555  5.54  0.  0.  0.
556  5.55  0.  0.  0.
557  5.56  0.  0.  0.
558  5.57  0.  0.  0.
559  5.58  0.  0.  0.
560  5.59  0.  0.  0.
561  5.60  0.  0.  0.
562  5.61  0.  0.  0.
563  5.62  0.  0.  0.
564  5.63  0.  0.  0.
565  5.64  0.  0.  0.
566  5.65  0.  0.  0.
567  5.66  0.  0.  0.
568  5.67  0.  0.  0.
569  5.68  0.  0.  0.
570  5.69  0.  0.  0.
571  5.70  0.  0.  0.
572  5.71  0.  0.  0.
573  5.72  0.  0.  0.
574  5.73  0.  0.  0.
575  5.74  0.  0.  0.
576  5.75  0.  0.  0.
577  5.76  0.  0.  0.
578  5.77  0.  0.  0.
579  5.78  0.  0.  0.
580  5.79  0.  0.  0.
581  5.80  0.  0.  0.
582  5.81  0.  0.  0.
583  5.82  0.  0.  0.
584  5.83  0.  0.  0.
585  5.84  0.  0.  0.
586  5.85  0.  0.  0.
587  5.86  0.  0.  0.
588  5.87  0.  0.  0.
589  5.88  0.  0.  0.
590  5.89  0.  0.  0.
591  5.90  0.  0.  0.
592  5.91  0.  0.  0.
593  5.92  0.  0.  0.
594  5.93  0.  0.  0.
595  5.94  0.  0.  0.
596  5.95  0.  0.  0.
597  5.96  0.  0.  0.
598  5.97  0.  0.  0.
599  5.98  0.  0.  0.
600  5.99  0.  0.  0.
1                         6.9530999885104E+00 -6.0302352972623E-01  2.1263889507552E-02
1  0.0000000000000E+00 -6.2543208667609E-09 -1.8835835259579E-08  5.5574803092817E-09
2  1.0000000000000E-02  2.9655772323034E-03  9.4593200984123E-05 -3.7027880640234E-03
3  2.0000000000000E-02  1.1846400043921E-02  3.8811356761623E-04 -1.4768509726380E-02
4  3.0000000000000E-02  2.6594713750877E-02  9.0941068267121E-04 -3.3069485938145E-02
5  4.0000000000000E-02  4.7130838074478E-02  1.7053371889484E-03 -5.8393751805036E-02
6  5.0000000000000E-02  7.3343048291083E-02  2.8389466932082E-03 -9.0446324260516E-02
7  6.0000000000000E-02  1.0508743801946E-01  4.3870552597419E-03 -1.2885101053211E-01
8  7.0000000000000E-02  1.4218779158426E-01  6.4372477765331E-03 -1.7315278868634E-01
9  8.0000000000000E-02  1.8443550014854E-01  9.0844293128041E-03 -2.2282079709526E-01
10  9.0000000000000E-02  2.3158956083859E-01  1.2427037311144E-02 -2.7725197284464E-01
11  1.0000000000000E-01  2.8337670169666E-01  1.6563042573272E-02 -3.3577537956919E-01
12  1.1000000000000E-01  3.3949167734029E-01  2.1585875114853E-02 -3.9765726268674E-01
13  1.2000000000000E-01  3.9959778057664E-01  2.7580414810965E-02 -4.6210686437725E-01
14  1.3000000000000E-01  4.6332761386634E-01  3.4619186186316E-02 -5.2828302188657E-01
15  1.4000000000000E-01  5.3028416145252E-01  4.2758891712057E-02 -5.9530156092061E-01
16  1.5000000000000E-01  6.0004219822356E-01  5.2037408677330E-02 -6.6224348123895E-01
17  1.6000000000000E-01  6.7215006506856E-01  6.2471361360727E-02 -7.2816391438976E-01
18  1.7000000000000E-01  7.4613183276929E-01  7.4054363212303E-02 -7.9210181427042E-01
19  1.8000000000000E-01  8.2148986755357E-01  8.6756003560443E-02 -8.5309032038667E-01
20  1.9000000000000E-01  8.9770780155449E-01  1.0052163056929E-01 -9.1016771190704E-01
21  2.0000000000000E-01  9.7425390085213E-01  1.1527295746462E-01 -9.6238884855046E-01
22  2.1000000000000E-01  1.0505848128205E+00  1.3090949315433E-01 -1.0088369726982E+00
23  2.2000000000000E-01  1.1261496634789E+00  1.4731077207260E-01 -1.0486357266297E+00
24  2.3000000000000E-01  1.2003944647774E+00  1.6433933217206E-01 -1.0809612201663E+00
25  2.4000000000000E-01  1.2727667815585E+00  1.8184436526922E-01 -1.1050539679725E+00
26  2.5000000000000E-01  1.3427205986335E+00  1.9966594118206E-01 -1.1202305029769E+00
27  2.6000000000000E-01  1.4097213202949E+00  2.1763968700042E-01 -1.1258944634161E+00
28  2.7000000000000E-01  1.4732508279111E+00  2.3560178604437E-01 -1.1215469463756E+00
29  2.8000000000000E-01  1.5328125162405E+00  2.5339414814496E-01 -1.1067959208035E+00
30  2.9000000000000E-01  1.5879362259432E+00  2.7086959426949E-01 -1.0813644980686E+00
31  3.0000000000000E-01  1.6381829885914E+00  2.8789689452947E-01 -1.0450978683669E+00
32  3.1000000000000E-01  1.6831495013553E+00  3.0436549944035E-01 -9.9796872664748E-01
33  3.2000000000000E-01  1.7224722514929E+00  3.2018980999231E-01 -9.4008103207553E-01
34  3.3000000000000E-01  1.7558312157633E+00  3.3531284254281E-01 -8.7167197008576E-01
35  3.4000000000000E-01  1.7829530668096E+00  3.4970915951151E-01 -7.9311201536434E-01
36  3.5000000000000E-01  1.8036138272701E+00  3.6338695596813E-01 -7.0490302705838E-01
37  3.6000000000000E-01  1.8176409226734E+00  3.7638921494649E-01 -6.0767434346536E-01
38  3.7000000000000E-01  1.8249145957940E+00  3.8879387007143E-01 -5.0217688159470E-01
39  3.8000000000000E-01  1.8253686578039E+00  4.0071294213067E-01 -3.8927528645263E-01
40  3.9000000000000E-01  1.8189905649268E+00  4.1229064576358E-01 -2.6993821472480E-01
41  4.0000000000000E-01  1.8058208230357E+00  4.2370049262026E-01 -1.4522687675439E-01
42  4.1000000000000E-01  1.7859517363681E+00  4.3514144728552E-01 -1.6281998336942E-02
43  4.2000000000000E-01  1.7595255299105E+00  4.4683322107233E-01  1.1569060109294E-01
44  4.3000000000000E-01  1.7267318876540E+00  4.5901081560272E-01  2.4943558574185E-01
45  4.4000000000000E-01  1.6878049605173E+00  4.7191845208784E-01  3.8366458086541E-01
46  4.5000000000000E-01  1.6430199079545E+00  4.8580304264446E-01  5.1707327286439E-01
47  4.6000000000000E-01  1.5926890458375E+00  5.0090737618771E-01  6.4835883830729E-01
48  4.7000000000000E-01  1.5371576798945E+00  5.1746320287829E-01  7.7623739804992E-01
49  4.8000000000000E-01  1.4767997086239E+00  5.3568440737189E-01  8.9946118916995E-01
50  4.9000000000000E-01  1.4120130820591E+00  5.5576046195750E-01  1.0168351507941E+00
51  5.0000000000000E-01  1.3432152029802E+00  5.7785034597535E-01  1.1272326300548E+00
52  5.1000000000000E-01  1.2708383551564E+00  6.0207710773510E-01  1.2296099312228E+00
53  5.2000000000000E-01  1.1953252390270E+00  6.2852322972689E-01  1.3230194541730E+00
54  5.3000000000000E-01  1.1171246890255E+00  6.5722693761384E-01  1.4066211972417E+00
55  5.4000000000000E-01  1.0366876387044E+00  6.8817956884001E-01  1.4796924335659E+00
56  5.5000000000000E-01  9.5446339018286E-01  7.2132408834661E-01  1.5416354083344E+00
57  5.6000000000000E-01  8.7089623349941E-01  7.5655480764253E-01  1.5919829461294E+00
58  5.7000000000000E-01  7.8642244955088E-01  7.9371833020067E-01  1.6304019016497E+00
59  5.8000000000000E-01  7.0146771778328E-01  8.3261571179910E-01  1.6566944325036E+00
60  5.9000000000000E-01  6.1644493706609E-01  8.7300578998942E-01  1.6707971183249E+00
61  6.0000000000000E-01  5.3175245560419E-01  9.1460960336459E-01  1.6727779950486E+00
62  6.1000000000000E-01  4.4777269371089E-01  9.5711578971140E-01  1.6628316156797E+00
63  6.2000000000000E-01  3.6487113214623E-01  1.0001868234201E+00  1.6412722882515E+00
64  6.3000000000000E-01  2.8339562885727E-01  1.0434659275669E+00  1.6085256769106E+00
65  6.4000000000000E-01  2.0367601864341E-01  1.0865844756614E+00  1.5651189823408E+00
66  6.5000000000000E-01  1.2602394376458E-01  1.1291696828197E+00  1.5116699423069E+00
67  6.6000000000000E-01  5.0732859012059E-02  1.1708523765897E+00  1.4488749114023E+00
68  6.7000000000000E-01 -2.1921847593949E-02  1.2112746341653E+00  1.3774962907287E+00
69  6.8000000000000E-01 -9.1682677458557E-02  1.2500970754585E+00  1.2983495829914E+00
70  6.9000000000000E-01 -1.5830984432962E-01  1.2870056104239E+00  1.2122903463629E+00
71  7.0000000000000E-01 -2.2158115018411E-01  1.3217174539713E+00  1.1202013115884E+00
72  7.1000000000000E-01 -2.8129196058596E-01  1.3539862423609E+00  1.0229799115589E+00
73  7.2000000000000E-01 -3.3725531802688E-01  1.3836061106119E+00  9.2152645146585E-01
74  7.3000000000000E-01 -3.8930222224668E-01  1.4104146204487E+00  8.1673312137110E-01
75  7.4000000000000E-01 -4.3728209581418E-01  1.4342944618188E+00  7.0947402239471E-01
76  7.5000000000000E-01 -4.8106344169446E-01  1.4551738870613E+00  6.0059634368453E-01
77  7.6000000000000E-01 -5.2053468752798E-01  1.4730258743493E+00  4.9091279089670E-01
78  7.7000000000000E-01 -5.5560519931817E-01  1.4878660549419E+00  3.8119532916759E-01
79  7.8000000000000E-01 -5.8620643558824E-01  1.4997494759432E+00  2.7217026559353E-01
80  7.9000000000000E-01 -6.1229320224065E-01  1.5087663055321E+00  1.6451465914524E-01
81  8.0000000000000E-01 -6.3384495873233E-01  1.5150366199289E+00  5.8854010765009E-02
82  8.1000000000000E-01 -6.5086711812989E-01  1.5187044396852E+00 -4.4238845886466E-02
83  8.2000000000000E-01 -6.6339227745220E-01  1.5199312063241E+00 -1.4424376109831E-01
84  8.3000000000000E-01 -6.7148131070927E-01  1.5188889081596E+00 -2.4069232528567E-01
85  8.4000000000000E-01 -6.7522425540775E-01  1.5157530756798E+00 -3.3316611571227E-01
86  8.5000000000000E-01 -6.7474092414389E-01  1.5106958717682E+00 -4.2129429823316E-01
87  8.6000000000000E-01 -6.7018117629759E-01  1.5038795000413E+00 -5.0475075620961E-01