Uu    ONCVPSP-4.0.1  r_core=   1.50628   1.50628   1.50628
119.0000     27.0000      230731    zatom,zion,pspd
8      11   2     4   600     0    pspcod,pspxc,lmax,lloc,mmax,r2well
5.99000000  5.00000000  0.00000000    rchrg fchrg qchrg
3     3     3     0    nproj
3     1           extension_switch
3     4     0    nprojso
0                         2.3565458991998E+01 -3.0730306444275E+00 -3.3481117069228E-01
1  0.0000000000000E+00 -1.9041426213562E-09 -1.1040789948957E-09  3.1149697821142E-08
2  1.0000000000000E-02  1.2896232304798E-01  1.6427204149817E-02 -1.2760973493548E-01
3  2.0000000000000E-02  2.5729367485443E-01  3.2833860052701E-02 -2.5355963775973E-01
4  3.0000000000000E-02  3.8436730869564E-01  4.9200123609507E-02 -3.7621379600146E-01
5  4.0000000000000E-02  5.0956488824738E-01  6.5507544618134E-02 -4.9398372499073E-01
6  5.0000000000000E-02  6.3228059669161E-01  8.1739728017419E-02 -6.0535106129740E-01
7  6.0000000000000E-02  7.5192513189534E-01  9.7882953095940E-02 -7.0888905449211E-01
8  7.0000000000000E-02  8.6792955196639E-01  1.1392673798576E-01 -8.0328249425536E-01
9  8.0000000000000E-02  9.7974893739500E-01  1.2986433786522E-01 -8.8734574100992E-01
10  9.0000000000000E-02  1.0868658383079E+00  1.4569316662903E-01 -9.6003856588106E-01
11  1.0000000000000E-01  1.1887934780534E+00  1.6141513331936E-01 -1.0204795490713E+00
12  1.1000000000000E-01  1.2850786873572E+00  1.7703688631482E-01 -1.0679568337306E+00
13  1.2000000000000E-01  1.3753045465861E+00  1.9256996010886E-01 -1.1019360840544E+00
14  1.3000000000000E-01  1.4590927171778E+00  2.0803082143506E-01 -1.1220655505308E+00
15  1.4000000000000E-01  1.5361054469842E+00  2.2344081347366E-01 -1.1281782008189E+00
16  1.5000000000000E-01  1.6060472380619E+00  2.3882599885874E-01 -1.1202909304675E+00
17  1.6000000000000E-01  1.6686661692870E+00  2.5421690415731E-01 -1.0986009223924E+00
18  1.7000000000000E-01  1.7237548699912E+00  2.6964817036930E-01 -1.0634792765774E+00
19  1.8000000000000E-01  1.7711511445668E+00  2.8515811576208E-01 -1.0154620807176E+00
20  1.9000000000000E-01  1.8107382516147E+00  3.0078821896907E-01 -9.5523913750948E-01
21  2.0000000000000E-01  1.8424448446538E+00  3.1658253171709E-01 -8.8364060406830E-01
22  2.1000000000000E-01  1.8662445846344E+00  3.3258703177275E-01 -8.0162183275023E-01
23  2.2000000000000E-01  1.8821554374520E+00  3.4884892769247E-01 -7.1024672983269E-01
24  2.3000000000000E-01  1.8902386723199E+00  3.6541592770579E-01 -6.1066996858172E-01
25  2.4000000000000E-01  1.8905975791880E+00  3.8233548554528E-01 -5.0411840587630E-01
26  2.5000000000000E-01  1.8833759253803E+00  3.9965403625386E-01 -3.9187205664135E-01
27  2.6000000000000E-01  1.8687561732489E+00  4.1741623495129E-01 -2.7524497787877E-01
28  2.7000000000000E-01  1.8469574818997E+00  4.3566421123273E-01 -1.5556640427730E-01
29  2.8000000000000E-01  1.8182335169417E+00  4.5443685131542E-01 -3.4162460604839E-02
30  2.9000000000000E-01  1.7828700927509E+00  4.7376911926213E-01  8.7661247165461E-02
31  3.0000000000000E-01  1.7411826719375E+00  4.9369142761480E-01  2.0863588908351E-01
32  3.1000000000000E-01  1.6935137465873E+00  5.1422906659500E-01  3.2754427795993E-01
33  3.2000000000000E-01  1.6402301254330E+00  5.3540169969958E-01  4.4323414497638E-01
34  3.3000000000000E-01  1.5817201504343E+00  5.5722293207452E-01  5.5462966489296E-01
35  3.4000000000000E-01  1.5183908653414E+00  5.7969995652097E-01  6.6074111510043E-01
36  3.5000000000000E-01  1.4506651577173E+00  6.0283328041242E-01  7.6067259737073E-01
37  3.6000000000000E-01  1.3789788946440E+00  6.2661653521760E-01  8.5362779578536E-01
38  3.7000000000000E-01  1.3037780709669E+00  6.5103636876491E-01  9.3891378794782E-01
39  3.8000000000000E-01  1.2255159874912E+00  6.7607241888714E-01  1.0159429681735E+00
40  3.9000000000000E-01  1.1446504750536E+00  7.0169736568111E-01  1.0842331800066E+00
41  4.0000000000000E-01  1.0616411789078E+00  7.2787705833566E-01  1.1434061902610E+00
42  4.1000000000000E-01  9.7694691639326E-01  7.5457071134870E-01  1.1931846670976E+00
43  4.2000000000000E-01  8.9102311945224E-01  7.8173116399133E-01  1.2333878498230E+00
44  4.3000000000000E-01  8.0431937222776E-01  8.0930519610101E-01  1.2639261176385E+00
45  4.4000000000000E-01  7.1727705274499E-01  8.3723389270830E-01  1.2847946781614E+00
46  4.5000000000000E-01  6.3032708656100E-01  8.6545304962981E-01  1.2960666039991E+00
47  4.6000000000000E-01  5.4388781927202E-01  8.9389361199403E-01  1.2978854469727E+00
48  4.7000000000000E-01  4.5836301389953E-01  9.2248213770378E-01  1.2904576548693E+00
49  4.8000000000000E-01  3.7413997843410E-01  9.5114127806926E-01  1.2740450051630E+00
50  4.9000000000000E-01  2.9158782819508E-01  9.7979026825619E-01  1.2489572543700E+00
51  5.0000000000000E-01  2.1105588715352E-01  1.0083454207652E+00  1.2155451811679E+00
52  5.1000000000000E-01  1.3287223195311E-01  1.0367206158711E+00  1.1741941767535E+00
53  5.2000000000000E-01  5.7342382030591E-02  1.0648277837770E+00  1.1253185079019E+00
54  5.3000000000000E-01 -1.5251861035116E-02  1.0925773741527E+00  1.0693563476393E+00
55  5.4000000000000E-01 -8.4653422049586E-02  1.1198788097005E+00  1.0067656362432E+00
56  5.5000000000000E-01 -1.5063080592726E-01  1.1466409213893E+00  9.3802080233002E-01
57  5.6000000000000E-01 -2.1297879415992E-01  1.1727723640000E+00  8.6361034101834E-01
58  5.7000000000000E-01 -2.7151898182947E-01  1.1981820115877E+00  7.8403521443534E-01
59  5.8000000000000E-01 -3.2610015327036E-01  1.2227793333742E+00  6.9980801006419E-01
60  5.9000000000000E-01 -3.7659849486151E-01  1.2464747514029E+00  6.1145276535630E-01
61  6.0000000000000E-01 -4.2291764389008E-01  1.2691799819975E+00  5.1950534342514E-01
62  6.1000000000000E-01 -4.6498857299169E-01  1.2908083636448E+00  4.2451422508896E-01
63  6.2000000000000E-01 -5.0276931034436E-01  1.3112751743563E+00  3.2704156753888E-01
64  6.3000000000000E-01 -5.3624449658173E-01  1.3304979418367E+00  2.2766436988084E-01
65  6.4000000000000E-01 -5.6542478029713E-01  1.3483967499004E+00  1.2697558097026E-01
66  6.5000000000000E-01 -5.9034605502840E-01  1.3648945445167E+00  2.5584985424010E-02
67  6.6000000000000E-01 -6.1106854173922E-01  1.3799174426446E+00 -7.5880290549069E-02
68  6.7000000000000E-01 -6.2767572203037E-01  1.3933950466359E+00 -1.7677580101920E-01
69  6.8000000000000E-01 -6.4027312861012E-01  1.4052607664569E+00 -2.7644046178061E-01
70  6.9000000000000E-01 -6.4898700090433E-01  1.4154521513225E+00 -3.7419800324591E-01
71  7.0000000000000E-01 -6.5396281507146E-01  1.4239112315653E+00 -4.6935928286081E-01
72  7.1000000000000E-01 -6.5536369907767E-01  1.4305848707029E+00 -5.6122551812998E-01
73  7.2000000000000E-01 -6.5336874485510E-01  1.4354251267483E+00 -6.4909247195813E-01
74  7.3000000000000E-01 -6.4817123088047E-01  1.4383896208456E+00 -7.3225559097374E-01
75  7.4000000000000E-01 -6.3997676974194E-01  1.4394419103561E+00 -8.1001606569061E-01
76  7.5000000000000E-01 -6.2900139637756E-01  1.4385518625717E+00 -8.8168774961994E-01
77  7.6000000000000E-01 -6.1546961363993E-01  1.4356960243494E+00 -9.4660484365098E-01
78  7.7000000000000E-01 -5.9961241263985E-01  1.4308579821455E+00 -1.0041302230082E+00
79  7.8000000000000E-01 -5.8166528592204E-01  1.4240287062301E+00 -1.0536642576755E+00
80  7.9000000000000E-01 -5.6186625190542E-01  1.4152068722865E+00 -1.0946539540908E+00
81  8.0000000000000E-01 -5.4045390916041E-01  1.4043991531807E+00 -1.1266022268314E+00
82  8.1000000000000E-01 -5.1766553898428E-01  1.3916204734356E+00 -1.1490770944516E+00
83  8.2000000000000E-01 -4.9373527435936E-01  1.3768942188729E+00 -1.1617205841184E+00
84  8.3000000000000E-01 -4.6889235273961E-01  1.3602523940103E+00 -1.1642571254753E+00
85  8.4000000000000E-01 -4.4335946920596E-01  1.3417357201161E+00 -1.1565012154766E+00
86  8.5000000000000E-01 -4.1735124536922E-01  1.3213936673406E+00 -1.1383641428487E+00
87  8.6000000000000E-01 -3.9107282799423E-01  1.2992844150401E+00 -1.1098595732174E+00
88  8.7000000000000E-01 -3.6471862968804E-01  1.2754747352942E+00 -1.0711078136289E+00
89  8.8000000000000E-01 -3.3847122216155E-01  1.2500397956590E+00 -1.0223385977955E+00
90  8.9000000000000E-01 -3.1250039056696E-01  1.2230628783909E+00 -9.6389226045390E-01
91  9.0000000000000E-01 -2.8696235526424E-01  1.1946350146812E+00 -8.9621920015136E-01
92  9.1000000000000E-01 -2.6199916511444E-01  1.1648545338545E+00 -8.1987756386520E-01
93  9.2000000000000E-01 -2.3773826407486E-01  1.1338265289469E+00 -7.3552912336457E-01
94  9.3000000000000E-01 -2.1429223052085E-01  1.1016622415914E+00 -6.4393335129025E-01
95  9.4000000000000E-01 -1.9175868638288E-01  1.0684783706425E+00 -5.4593974368689E-01
96  9.5000000000000E-01 -1.7022037090846E-01  1.0343963104461E+00 -4.4247847425769E-01
97  9.6000000000000E-01 -1.4974537167521E-01  9.9954132607398E-01 -3.3454950303672E-01
98  9.7000000000000E-01 -1.3038750343602E-01  9.6404167415440E-01 -2.2321029758842E-01
99  9.8000000000000E-01 -1.1218682350544E-01  9.2802767911619E-01 -1.0956235740493E-01
100  9.9000000000000E-01 -9.5170270731251E-02  8.9163077569770E-01  5.2632388813412E-03
101  1.0000000000000E+00 -7.9352413668892E-02  8.5498252942162E-01  1.2012101926499E-01
102  1.0100000000000E+00 -6.4736292411304E-02  8.1821364738861E-01  2.3386677323706E-01
103  1.0200000000000E+00 -5.1314337644621E-02  7.8145299217573E-01  3.4537339765073E-01
104  1.0300000000000E+00 -3.9069349914432E-02  7.4482661182874E-01  4.5354664705194E-01
105  1.0400000000000E+00 -2.7975521806287E-02  7.0845679890308E-01  5.5734049955332E-01
106  1.0500000000000E+00 -1.7999485769780E-02  6.7246119123542E-01  6.5577185307695E-01
107  1.0600000000000E+00 -9.1013706445607E-03  6.3695192661609E-01  7.4793427666191E-01
108  1.0700000000000E+00 -1.2358505665122E-03  6.0203486279601E-01  8.3301055727933E-01
109  1.0800000000000E+00  5.6468291696376E-03  5.6780887330558E-01  9.1028380400697E-01
110  1.0900000000000E+00  1.1599863563490E-02  5.3436522841236E-01  9.7914689795114E-01
111  1.1000000000000E+00  1.6678949571439E-02  5.0178706921662E-01  1.0391101074431E+00
112  1.1100000000000E+00  2.0941409292410E-02  4.7014898140368E-01  1.0898067231958E+00
113  1.1200000000000E+00  2.4445384255951E-02  4.3951667357602E-01  1.1309966063211E+00
114  1.1300000000000E+00  2.7249108521735E-02  4.0994676339278E-01  1.1625675829239E+00
115  1.1400000000000E+00  2.9410266357311E-02  3.8148667300343E-01  1.1845346610419E+00
116  1.1500000000000E+00  3.0985438258329E-02  3.5417463348452E-01  1.1970370887136E+00
117  1.1600000000000E+00  3.2029637086544E-02  3.2803979623629E-01  1.2003333143196E+00
118  1.1700000000000E+00  3.2595934129942E-02  3.0310244757341E-01  1.1947939519262E+00
119  1.1800000000000E+00  3.2735173010268E-02  2.7937432111236E-01  1.1808928935709E+00
120  1.1900000000000E+00  3.2495767580401E-02  2.5685900102147E-01  1.1591967471266E+00
121  1.2000000000000E+00  3.1923578324615E-02  2.3555240780629E-01  1.1303528113418E+00
122  1.2100000000000E+00  3.1061860312502E-02  2.1544335706371E-01  1.0950758285528E+00
123  1.2200000000000E+00  2.9951274489983E-02  1.9651418057731E-01  1.0541337797954E+00
124  1.2300000000000E+00  2.8629953044793E-02  1.7874139826512E-01  1.0083330060733E+00
125  1.2400000000000E+00  2.7133608756898E-02  1.6209642882798E-01  9.5850295336493E-01
126  1.2500000000000E+00  2.5495677662366E-02  1.4654632650275E-01  9.0548084710197E-01
127  1.2600000000000E+00  2.3747484009044E-02  1.3205453108968E-01  8.5009660460113E-01
128  1.2700000000000E+00  2.1918416370089E-02  1.1858161840066E-01  7.9315829117760E-01
129  1.2800000000000E+00  2.0036103892366E-02  1.0608603845332E-01  7.3543841782218E-01
130  1.2900000000000E+00  1.8126581977384E-02  9.4524829102462E-02  6.7766136568350E-01
131  1.3000000000000E+00  1.6214437206815E-02  8.3854293341784E-02  6.2049220558271E-01
132  1.3100000000000E+00  1.4322922002758E-02  7.4030629198857E-02  5.6452716014267E-01
133  1.3200000000000E+00  1.2474030331787E-02  6.5010501964851E-02  5.1028593237672E-01
134  1.3300000000000E+00  1.0688526694349E-02  5.6751549425301E-02  4.5820609840605E-01
135  1.3400000000000E+00  8.9859216482181E-03  4.9212811753921E-02  4.0863973432258E-01
136  1.3500000000000E+00  7.3843881660279E-03  4.2355078772522E-02  3.6185241878919E-01
137  1.3600000000000E+00  5.9006141963797E-03  3.6141148344584E-02  3.1802472439581E-01
138  1.3700000000000E+00  4.5495878417430E-03  3.0535990718673E-02  2.7725628311709E-01
139  1.3800000000000E+00  3.3443125617439E-03  2.5506814652122E-02  2.3957248498383E-01
140  1.3900000000000E+00  2.2954507235879E-03  2.1023032094568E-02  2.0493384506850E-01
141  1.4000000000000E+00  1.4108946334673E-03  1.7056119080264E-02  1.7324805254755E-01
142  1.4100000000000E+00  6.9526634940915E-04  1.3579372577961E-02  1.4438467372709E-01
143  1.4200000000000E+00  1.4933010251238E-04  1.0567545970879E-02  1.1819277069420E-01
144  1.4300000000000E+00 -2.3069959862449E-04  7.9963656476313E-03  9.4521509915963E-02
145  1.4400000000000E+00 -4.6587821193560E-04  5.8310121680699E-03  7.3437258147885E-02
146  1.4500000000000E+00 -5.7991339410806E-04  4.0388780994258E-03  5.5005015722982E-02
147  1.4600000000000E+00 -5.8002973308351E-04  2.6075506831981E-03  3.8987105858914E-02
148  1.4700000000000E+00 -4.8641063401146E-04  1.5186861437051E-03  2.5328227118131E-02
149  1.4800000000000E+00 -3.3125441180163E-04  7.4854407262640E-04  1.4160238613071E-02
150  1.4900000000000E+00 -1.5890233082774E-04  2.6644103105128E-04  5.8161787360337E-03
151  1.5000000000000E+00 -3.0931594357344E-05  3.8631072899628E-05  9.9665959369481E-04
152  1.5100000000000E+00  3.3113631164361E-06 -3.4133730306350E-06 -9.9629359397228E-05
153  1.5200000000000E+00 -9.2430525942822E-07  1.0536417655383E-06  2.8781411947735E-05
154  1.53  0.  0.  0.
155  1.54  0.  0.  0.
156  1.55  0.  0.  0.
157  1.56  0.  0.  0.
158  1.57  0.  0.  0.
159  1.58  0.  0.  0.
160  1.59  0.  0.  0.
161  1.60  0.  0.  0.
162  1.61  0.  0.  0.
163  1.62  0.  0.  0.
164  1.63  0.  0.  0.
165  1.64  0.  0.  0.
166  1.65  0.  0.  0.
167  1.66  0.  0.  0.
168  1.67  0.  0.  0.
169  1.68  0.  0.  0.
170  1.69  0.  0.  0.
171  1.70  0.  0.  0.
172  1.71  0.  0.  0.
173  1.72  0.  0.  0.
174  1.73  0.  0.  0.
175  1.74  0.  0.  0.
176  1.75  0.  0.  0.
177  1.76  0.  0.  0.
178  1.77  0.  0.  0.
179  1.78  0.  0.  0.
180  1.79  0.  0.  0.
181  1.80  0.  0.  0.
182  1.81  0.  0.  0.
183  1.82  0.  0.  0.
184  1.83  0.  0.  0.
185  1.84  0.  0.  0.
186  1.85  0.  0.  0.
187  1.86  0.  0.  0.
188  1.87  0.  0.  0.
189  1.88  0.  0.  0.
190  1.89  0.  0.  0.
191  1.90  0.  0.  0.
192  1.91  0.  0.  0.
193  1.92  0.  0.  0.
194  1.93  0.  0.  0.
195  1.94  0.  0.  0.
196  1.95  0.  0.  0.
197  1.96  0.  0.  0.
198  1.97  0.  0.  0.
199  1.98  0.  0.  0.
200  1.99  0.  0.  0.
201  2.00  0.  0.  0.
202  2.01  0.  0.  0.
203  2.02  0.  0.  0.
204  2.03  0.  0.  0.
205  2.04  0.  0.  0.
206  2.05  0.  0.  0.
207  2.06  0.  0.  0.
208  2.07  0.  0.  0.
209  2.08  0.  0.  0.
210  2.09  0.  0.  0.
211  2.10  0.  0.  0.
212  2.11  0.  0.  0.
213  2.12  0.  0.  0.
214  2.13  0.  0.  0.
215  2.14  0.  0.  0.
216  2.15  0.  0.  0.
217  2.16  0.  0.  0.
218  2.17  0.  0.  0.
219  2.18  0.  0.  0.
220  2.19  0.  0.  0.
221  2.20  0.  0.  0.
222  2.21  0.  0.  0.
223  2.22  0.  0.  0.
224  2.23  0.  0.  0.
225  2.24  0.  0.  0.
226  2.25  0.  0.  0.
227  2.26  0.  0.  0.
228  2.27  0.  0.  0.
229  2.28  0.  0.  0.
230  2.29  0.  0.  0.
231  2.30  0.  0.  0.
232  2.31  0.  0.  0.
233  2.32  0.  0.  0.
234  2.33  0.  0.  0.
235  2.34  0.  0.  0.
236  2.35  0.  0.  0.
237  2.36  0.  0.  0.
238  2.37  0.  0.  0.
239  2.38  0.  0.  0.
240  2.39  0.  0.  0.
241  2.40  0.  0.  0.
242  2.41  0.  0.  0.
243  2.42  0.  0.  0.
244  2.43  0.  0.  0.
245  2.44  0.  0.  0.
246  2.45  0.  0.  0.
247  2.46  0.  0.  0.
248  2.47  0.  0.  0.
249  2.48  0.  0.  0.
250  2.49  0.  0.  0.
251  2.50  0.  0.  0.
252  2.51  0.  0.  0.
253  2.52  0.  0.  0.
254  2.53  0.  0.  0.
255  2.54  0.  0.  0.
256  2.55  0.  0.  0.
257  2.56  0.  0.  0.
258  2.57  0.  0.  0.
259  2.58  0.  0.  0.
260  2.59  0.  0.  0.
261  2.60  0.  0.  0.
262  2.61  0.  0.  0.
263  2.62  0.  0.  0.
264  2.63  0.  0.  0.
265  2.64  0.  0.  0.
266  2.65  0.  0.  0.
267  2.66  0.  0.  0.
268  2.67  0.  0.  0.
269  2.68  0.  0.  0.
270  2.69  0.  0.  0.
271  2.70  0.  0.  0.
272  2.71  0.  0.  0.
273  2.72  0.  0.  0.
274  2.73  0.  0.  0.
275  2.74  0.  0.  0.
276  2.75  0.  0.  0.
277  2.76  0.  0.  0.
278  2.77  0.  0.  0.
279  2.78  0.  0.  0.
280  2.79  0.  0.  0.
281  2.80  0.  0.  0.
282  2.81  0.  0.  0.
283  2.82  0.  0.  0.
284  2.83  0.  0.  0.
285  2.84  0.  0.  0.
286  2.85  0.  0.  0.
287  2.86  0.  0.  0.
288  2.87  0.  0.  0.
289  2.88  0.  0.  0.
290  2.89  0.  0.  0.
291  2.90  0.  0.  0.
292  2.91  0.  0.  0.
293  2.92  0.  0.  0.
294  2.93  0.  0.  0.
295  2.94  0.  0.  0.
296  2.95  0.  0.  0.
297  2.96  0.  0.  0.
298  2.97  0.  0.  0.
299  2.98  0.  0.  0.
300  2.99  0.  0.  0.
301  3.00  0.  0.  0.
302  3.01  0.  0.  0.
303  3.02  0.  0.  0.
304  3.03  0.  0.  0.
305  3.04  0.  0.  0.
306  3.05  0.  0.  0.
307  3.06  0.  0.  0.
308  3.07  0.  0.  0.
309  3.08  0.  0.  0.
310  3.09  0.  0.  0.
311  3.10  0.  0.  0.
312  3.11  0.  0.  0.
313  3.12  0.  0.  0.
314  3.13  0.  0.  0.
315  3.14  0.  0.  0.
316  3.15  0.  0.  0.
317  3.16  0.  0.  0.
318  3.17  0.  0.  0.
319  3.18  0.  0.  0.
320  3.19  0.  0.  0.
321  3.20  0.  0.  0.
322  3.21  0.  0.  0.
323  3.22  0.  0.  0.
324  3.23  0.  0.  0.
325  3.24  0.  0.  0.
326  3.25  0.  0.  0.
327  3.26  0.  0.  0.
328  3.27  0.  0.  0.
329  3.28  0.  0.  0.
330  3.29  0.  0.  0.
331  3.30  0.  0.  0.
332  3.31  0.  0.  0.
333  3.32  0.  0.  0.
334  3.33  0.  0.  0.
335  3.34  0.  0.  0.
336  3.35  0.  0.  0.
337  3.36  0.  0.  0.
338  3.37  0.  0.  0.
339  3.38  0.  0.  0.
340  3.39  0.  0.  0.
341  3.40  0.  0.  0.
342  3.41  0.  0.  0.
343  3.42  0.  0.  0.
344  3.43  0.  0.  0.
345  3.44  0.  0.  0.
346  3.45  0.  0.  0.
347  3.46  0.  0.  0.
348  3.47  0.  0.  0.
349  3.48  0.  0.  0.
350  3.49  0.  0.  0.
351  3.50  0.  0.  0.
352  3.51  0.  0.  0.
353  3.52  0.  0.  0.
354  3.53  0.  0.  0.
355  3.54  0.  0.  0.
356  3.55  0.  0.  0.
357  3.56  0.  0.  0.
358  3.57  0.  0.  0.
359  3.58  0.  0.  0.
360  3.59  0.  0.  0.
361  3.60  0.  0.  0.
362  3.61  0.  0.  0.
363  3.62  0.  0.  0.
364  3.63  0.  0.  0.
365  3.64  0.  0.  0.
366  3.65  0.  0.  0.
367  3.66  0.  0.  0.
368  3.67  0.  0.  0.
369  3.68  0.  0.  0.
370  3.69  0.  0.  0.
371  3.70  0.  0.  0.
372  3.71  0.  0.  0.
373  3.72  0.  0.  0.
374  3.73  0.  0.  0.
375  3.74  0.  0.  0.
376  3.75  0.  0.  0.
377  3.76  0.  0.  0.
378  3.77  0.  0.  0.
379  3.78  0.  0.  0.
380  3.79  0.  0.  0.
381  3.80  0.  0.  0.
382  3.81  0.  0.  0.
383  3.82  0.  0.  0.
384  3.83  0.  0.  0.
385  3.84  0.  0.  0.
386  3.85  0.  0.  0.
387  3.86  0.  0.  0.
388  3.87  0.  0.  0.
389  3.88  0.  0.  0.
390  3.89  0.  0.  0.
391  3.90  0.  0.  0.
392  3.91  0.  0.  0.
393  3.92  0.  0.  0.
394  3.93  0.  0.  0.
395  3.94  0.  0.  0.
396  3.95  0.  0.  0.
397  3.96  0.  0.  0.
398  3.97  0.  0.  0.
399  3.98  0.  0.  0.
400  3.99  0.  0.  0.
401  4.00  0.  0.  0.
402  4.01  0.  0.  0.
403  4.02  0.  0.  0.
404  4.03  0.  0.  0.
405  4.04  0.  0.  0.
406  4.05  0.  0.  0.
407  4.06  0.  0.  0.
408  4.07  0.  0.  0.
409  4.08  0.  0.  0.
410  4.09  0.  0.  0.
411  4.10  0.  0.  0.
412  4.11  0.  0.  0.
413  4.12  0.  0.  0.
414  4.13  0.  0.  0.
415  4.14  0.  0.  0.
416  4.15  0.  0.  0.
417  4.16  0.  0.  0.
418  4.17  0.  0.  0.
419  4.18  0.  0.  0.
420  4.19  0.  0.  0.
421  4.20  0.  0.  0.
422  4.21  0.  0.  0.
423  4.22  0.  0.  0.
424  4.23  0.  0.  0.
425  4.24  0.  0.  0.
426  4.25  0.  0.  0.
427  4.26  0.  0.  0.
428  4.27  0.  0.  0.
429  4.28  0.  0.  0.
430  4.29  0.  0.  0.
431  4.30  0.  0.  0.
432  4.31  0.  0.  0.
433  4.32  0.  0.  0.
434  4.33  0.  0.  0.
435  4.34  0.  0.  0.
436  4.35  0.  0.  0.
437  4.36  0.  0.  0.
438  4.37  0.  0.  0.
439  4.38  0.  0.  0.
440  4.39  0.  0.  0.
441  4.40  0.  0.  0.
442  4.41  0.  0.  0.
443  4.42  0.  0.  0.
444  4.43  0.  0.  0.
445  4.44  0.  0.  0.
446  4.45  0.  0.  0.
447  4.46  0.  0.  0.
448  4.47  0.  0.  0.
449  4.48  0.  0.  0.
450  4.49  0.  0.  0.
451  4.50  0.  0.  0.
452  4.51  0.  0.  0.
453  4.52  0.  0.  0.
454  4.53  0.  0.  0.
455  4.54  0.  0.  0.
456  4.55  0.  0.  0.
457  4.56  0.  0.  0.
458  4.57  0.  0.  0.
459  4.58  0.  0.  0.
460  4.59  0.  0.  0.
461  4.60  0.  0.  0.
462  4.61  0.  0.  0.
463  4.62  0.  0.  0.
464  4.63  0.  0.  0.
465  4.64  0.  0.  0.
466  4.65  0.  0.  0.
467  4.66  0.  0.  0.
468  4.67  0.  0.  0.
469  4.68  0.  0.  0.
470  4.69  0.  0.  0.
471  4.70  0.  0.  0.
472  4.71  0.  0.  0.
473  4.72  0.  0.  0.
474  4.73  0.  0.  0.
475  4.74  0.  0.  0.
476  4.75  0.  0.  0.
477  4.76  0.  0.  0.
478  4.77  0.  0.  0.
479  4.78  0.  0.  0.
480  4.79  0.  0.  0.
481  4.80  0.  0.  0.
482  4.81  0.  0.  0.
483  4.82  0.  0.  0.
484  4.83  0.  0.  0.
485  4.84  0.  0.  0.
486  4.85  0.  0.  0.
487  4.86  0.  0.  0.
488  4.87  0.  0.  0.
489  4.88  0.  0.  0.
490  4.89  0.  0.  0.
491  4.90  0.  0.  0.
492  4.91  0.  0.  0.
493  4.92  0.  0.  0.
494  4.93  0.  0.  0.
495  4.94  0.  0.  0.
496  4.95  0.  0.  0.
497  4.96  0.  0.  0.
498  4.97  0.  0.  0.
499  4.98  0.  0.  0.
500  4.99  0.  0.  0.
501  5.00  0.  0.  0.
502  5.01  0.  0.  0.
503  5.02  0.  0.  0.
504  5.03  0.  0.  0.
505  5.04  0.  0.  0.
506  5.05  0.  0.  0.
507  5.06  0.  0.  0.
508  5.07  0.  0.  0.
509  5.08  0.  0.  0.
510  5.09  0.  0.  0.
511  5.10  0.  0.  0.
512  5.11  0.  0.  0.
513  5.12  0.  0.  0.
514  5.13  0.  0.  0.
515  5.14  0.  0.  0.
516  5.15  0.  0.  0.
517  5.16  0.  0.  0.
518  5.17  0.  0.  0.
519  5.18  0.  0.  0.
520  5.19  0.  0.  0.
521  5.20  0.  0.  0.
522  5.21  0.  0.  0.
523  5.22  0.  0.  0.
524  5.23  0.  0.  0.
525  5.24  0.  0.  0.
526  5.25  0.  0.  0.
527  5.26  0.  0.  0.
528  5.27  0.  0.  0.
529  5.28  0.  0.  0.
530  5.29  0.  0.  0.
531  5.30  0.  0.  0.
532  5.31  0.  0.  0.
533  5.32  0.  0.  0.
534  5.33  0.  0.  0.
535  5.34  0.  0.  0.
536  5.35  0.  0.  0.
537  5.36  0.  0.  0.
538  5.37  0.  0.  0.
539  5.38  0.  0.  0.
540  5.39  0.  0.  0.
541  5.40  0.  0.  0.
542  5.41  0.  0.  0.
543  5.42  0.  0.  0.
544  5.43  0.  0.  0.
545  5.44  0.  0.  0.
546  5.45  0.  0.  0.
547  5.46  0.  0.  0.
548  5.47  0.  0.  0.
549  5.48  0.  0.  0.
550  5.49  0.  0.  0.
551  5.50  0.  0.  0.
552  5.51  0.  0.  0.
553  5.52  0.  0.  0.
554  5.53  0.  0.  0.
555  5.54  0.  0.  0.
556  5.55  0.  0.  0.
557  5.56  0.  0.  0.
558  5.57  0.  0.  0.
559  5.58  0.  0.  0.
560  5.59  0.  0.  0.
561  5.60  0.  0.  0.
562  5.61  0.  0.  0.
563  5.62  0.  0.  0.
564  5.63  0.  0.  0.
565  5.64  0.  0.  0.
566  5.65  0.  0.  0.
567  5.66  0.  0.  0.
568  5.67  0.  0.  0.
569  5.68  0.  0.  0.
570  5.69  0.  0.  0.
571  5.70  0.  0.  0.
572  5.71  0.  0.  0.
573  5.72  0.  0.  0.
574  5.73  0.  0.  0.
575  5.74  0.  0.  0.
576  5.75  0.  0.  0.
577  5.76  0.  0.  0.
578  5.77  0.  0.  0.
579  5.78  0.  0.  0.
580  5.79  0.  0.  0.
581  5.80  0.  0.  0.
582  5.81  0.  0.  0.
583  5.82  0.  0.  0.
584  5.83  0.  0.  0.
585  5.84  0.  0.  0.
586  5.85  0.  0.  0.
587  5.86  0.  0.  0.
588  5.87  0.  0.  0.
589  5.88  0.  0.  0.
590  5.89  0.  0.  0.
591  5.90  0.  0.  0.
592  5.91  0.  0.  0.
593  5.92  0.  0.  0.
594  5.93  0.  0.  0.
595  5.94  0.  0.  0.
596  5.95  0.  0.  0.
597  5.96  0.  0.  0.
598  5.97  0.  0.  0.
599  5.98  0.  0.  0.
600  5.99  0.  0.  0.
1                         4.6786447205041E+01  2.2891970843344E+00 -8.9995826819094E-01
1  0.0000000000000E+00  1.9480161095320E-09 -5.0534503318045E-10 -1.6225878279874E-10
2  1.0000000000000E-02  3.4902775145671E-03 -3.2402122003006E-04  8.9019623748154E-04
3  2.0000000000000E-02  1.3934320660992E-02 -1.2868686709773E-03  3.5536922859872E-03
4  3.0000000000000E-02  3.1251946938445E-02 -2.8609718496161E-03  7.9692543376955E-03
5  4.0000000000000E-02  5.5310136885889E-02 -5.0006401754748E-03  1.4101640203552E-02
6  5.0000000000000E-02  8.5923957883295E-02 -7.6424528211750E-03  2.1901821270365E-02
7  6.0000000000000E-02  1.2285785093335E-01 -1.0705803315579E-02  3.1307294622833E-02
8  7.0000000000000E-02  1.6582727383560E-01 -1.4093597657025E-02  4.2242486574532E-02
9  8.0000000000000E-02  2.1450069221692E-01 -1.7693104168590E-02  5.4619249014161E-02
10  9.0000000000000E-02  2.6850190789171E-01 -2.1376952722309E-02  6.8337449999457E-02
11  1.0000000000000E-01  3.2741271198782E-01 -2.5004280237353E-02  8.3285659898385E-02
12  1.1000000000000E-01  3.9077584819145E-01 -2.8422018509924E-02  9.9341934069034E-02
13  1.2000000000000E-01  4.5809826934002E-01 -3.1466319453414E-02  1.1637469257462E-01
14  1.3000000000000E-01  5.2885466843458E-01 -3.3964111715395E-02  1.3424369674182E-01
15  1.4000000000000E-01  6.0249126296655E-01 -3.5734781398664E-02  1.5280112149031E-01
16  1.5000000000000E-01  6.7842980927384E-01 -3.6591968257061E-02  1.7189272129502E-01
17  1.6000000000000E-01  7.5607182148114E-01 -3.6345467278053E-02  1.9135908640357E-01
18  1.7000000000000E-01  8.3480296746331E-01 -3.4803224025136E-02  2.1103698453799E-01
19  1.8000000000000E-01  9.1399761222926E-01 -3.1773410518584E-02  2.3076078178771E-01
20  1.9000000000000E-01  9.9302347718833E-01 -2.7066566813736E-02  2.5036393477869E-01
21  2.0000000000000E-01  1.0712463819669E+00 -2.0497791825260E-02  2.6968054451712E-01
22  2.1000000000000E-01  1.1480350338260E+00 -1.1888965380331E-02  2.8854696059289E-01
23  2.2000000000000E-01  1.2227658283307E+00 -1.0709820026696E-03  3.0680342272991E-01
24  2.3000000000000E-01  1.2948276237704E+00  1.2114024427659E-02  3.2429572503004E-01
25  2.4000000000000E-01  1.3636264509726E+00  2.7810487185976E-02  3.4087688672012E-01
26  2.5000000000000E-01  1.4285901196147E+00  4.6147267421624E-02  3.5640881182098E-01
27  2.6000000000000E-01  1.4891726819596E+00  6.7235592865181E-02  3.7076391895652E-01
28  2.7000000000000E-01  1.5448587151449E+00  9.1167098775215E-02  3.8382672155123E-01
29  2.8000000000000E-01  1.5951673837679E+00  1.1801199553675E-01  3.9549533796316E-01
30  2.9000000000000E-01  1.6396562455463E+00  1.4781738715017E-01  4.0568291069974E-01
31  3.0000000000000E-01  1.6779247643115E+00  1.8060576432035E-01  4.1431891379363E-01
32  3.1000000000000E-01  1.7096174965109E+00  2.1637369495597E-01  4.2135032769794E-01
33  3.2000000000000E-01  1.7344269197574E+00  2.5509073361079E-01  4.2674266170878E-01
34  3.3000000000000E-01  1.7520958747582E+00  2.9669856974113E-01  4.3048080494736E-01
35  3.4000000000000E-01  1.7624195951636E+00  3.4111043262336E-01  4.3256968833320E-01
36  3.5000000000000E-01  1.7652473034745E+00  3.8821076838702E-01  4.3303474174744E-01
37  3.6000000000000E-01  1.7604833551050E+00  4.3785520189477E-01  4.3192213270518E-01
38  3.7000000000000E-01  1.7480879169691E+00  4.8987079316933E-01  4.2929877530468E-01
39  3.8000000000000E-01  1.7280771715010E+00  5.4405659476778E-01  4.2525210096796E-01
40  3.9000000000000E-01  1.7005230417837E+00  6.0018451297620E-01  4.1988958549482E-01
41  4.0000000000000E-01  1.6655524383741E+00  6.5800047199443E-01  4.1333803017464E-01
42  4.1000000000000E-01  1.6233460334278E+00  7.1722587645391E-01  4.0574259808793E-01
43  4.2000000000000E-01  1.5741365727666E+00  7.7755936372108E-01  3.9726561022807E-01
44  4.3000000000000E-01  1.5182067415287E+00  8.3867883354495E-01  3.8808510962273E-01
45  4.4000000000000E-01  1.4558866039283E+00  9.0024373877513E-01  3.7839320517381E-01
46  4.5000000000000E-01  1.3875506423498E+00  9.6189761716848E-01  3.6839421040081E-01
47  4.6000000000000E-01  1.3136144254532E+00  1.0232708407837E+00  3.5830259560262E-01
48  4.7000000000000E-01  1.2345309390894E+00  1.0839835561945E+00  3.4834077508361E-01
49  4.8000000000000E-01  1.1507866175709E+00  1.1436487857940E+00  3.3873675396380E-01
50  4.9000000000000E-01  1.0628971161404E+00  1.2018756578670E+00  3.2972166165089E-01
51  5.0000000000000E-01  9.7140286828717E-01  1.2582727309289E+00  3.2152720124512E-01
52  5.1000000000000E-01  8.7686447382367E-01  1.3124513761033E+00  3.1438304592827E-01
53  5.2000000000000E-01  7.7985796532512E-01  1.3640291800838E+00  3.0851421471871E-01
54  5.3000000000000E-01  6.8097000161489E-01  1.4126333305113E+00  3.0413846082217E-01
55  5.4000000000000E-01  5.8079303743780E-01  1.4579039454305E+00  3.0146370615172E-01
56  5.5000000000000E-01  4.7992051828707E-01  1.4994973088677E+00  3.0068555541445E-01
57  5.6000000000000E-01  3.7894214854384E-01  1.5370889754991E+00  3.0198492246410E-01
58  5.7000000000000E-01  2.7843927965944E-01  1.5703767088510E+00  3.0552580040128E-01
59  5.8000000000000E-01  1.7898046308366E-01  1.5990832194599E+00  3.1145320518146E-01
60  5.9000000000000E-01  8.1117210047072E-02  1.6229586719078E+00  3.1989132028959E-01
61  6.0000000000000E-01 -1.4620002816229E-02  1.6417829325865E+00  3.3094186739045E-01
62  6.1000000000000E-01 -1.0772544661926E-01  1.6553675333970E+00  3.4468272480849E-01
63  6.2000000000000E-01 -1.9772154077974E-01  1.6635573302999E+00  3.6116681227727E-01
64  6.3000000000000E-01 -2.8416191399552E-01  1.6662318396412E+00  3.8042125668356E-01
65  6.4000000000000E-01 -3.6663410331247E-01  1.6633062394240E+00  4.0244684957523E-01
66  6.5000000000000E-01 -4.4476187383654E-01  1.6547320271042E+00  4.2721780307237E-01
67  6.6000000000000E-01 -5.1820714665446E-01  1.6404973299940E+00  4.5468180658587E-01
68  6.7000000000000E-01 -5.8667152759696E-01  1.6206268688808E+00  4.8476038248094E-01
69  6.8000000000000E-01 -6.4989743452600E-01  1.5951815799390E+00  5.1734953459392E-01
70  6.9000000000000E-01 -7.0766882577366E-01  1.5642579043603E+00  5.5232067939538E-01
71  7.0000000000000E-01 -7.5981153713173E-01  1.5279867592728E+00  5.8952184565623E-01
72  7.1000000000000E-01 -8.0619323931253E-01  1.4865322074072E+00  6.2877912478798E-01