Uu    ONCVPSP-4.0.1  r_core=   1.50628   1.50628   1.50628
119.0000     27.0000      230612    zatom,zion,pspd
8      11   2     4   600     0    pspcod,pspxc,lmax,lloc,mmax,r2well
5.99000000  5.00000000  0.00000000    rchrg fchrg qchrg
3     2     2     0     0    nproj
1     1           extension_switch
0                         2.2776615116514E+01 -3.1534184343586E+00 -3.1583085656765E-01
1  0.0000000000000E+00 -1.8726116213230E-09 -9.6822438955257E-10  2.9483582020262E-08
2  1.0000000000000E-02  1.2925929922431E-01  1.6603197868543E-02 -1.2560160359156E-01
3  2.0000000000000E-02  2.5788336420146E-01  3.3191759475953E-02 -2.4957913010479E-01
4  3.0000000000000E-02  3.8524120952945E-01  4.9751652731413E-02 -3.7033168142792E-01
5  4.0000000000000E-02  5.1071030895387E-01  6.6270041239550E-02 -4.8630432364296E-01
6  5.0000000000000E-02  6.3368072907356E-01  8.2735850790911E-02 -5.9601009256509E-01
7  6.0000000000000E-02  7.5355914936453E-01  9.9140298934259E-02 -6.9805084905679E-01
8  7.0000000000000E-02  8.6977273287044E-01  1.1547737649229E-01 -7.9113663627326E-01
9  8.0000000000000E-02  9.8177281378012E-01  1.3174427085054E-01 -8.7410322047993E-01
10  9.0000000000000E-02  1.0890383703932E+00  1.4794172201961E-01 -9.4592753270680E-01
11  1.0000000000000E-01  1.1910792546247E+00  1.6407430381766E-01 -1.0057407695042E+00
12  1.1000000000000E-01  1.2874391521755E+00  1.8015062401553E-01 -1.0528389565398E+00
13  1.2000000000000E-01  1.3776982507440E+00  1.9618343889692E-01 -1.0866908277504E+00
14  1.3000000000000E-01  1.4614755971331E+00  2.1218967937841E-01 -1.1069429241789E+00
15  1.4000000000000E-01  1.5384311277426E+00  2.2819038757137E-01 -1.1134218693817E+00
16  1.5000000000000E-01  1.6082673606893E+00  2.4421056441348E-01 -1.1061338312622E+00
17  1.6000000000000E-01  1.6707307415968E+00  2.6027893071596E-01 -1.0852612322623E+00
18  1.7000000000000E-01  1.7256126388878E+00  2.7642760562672E-01 -1.0511568199119E+00
19  1.8000000000000E-01  1.7727499881406E+00  2.9269170806655E-01 -1.0043352567901E+00
20  1.9000000000000E-01  1.8120255886799E+00  3.0910888812296E-01 -9.4546243200349E-01
21  2.0000000000000E-01  1.8433680590151E+00  3.2571879665704E-01 -8.7534273449924E-01
22  2.1000000000000E-01  1.8667514609646E+00  3.4256250246663E-01 -7.9490456113752E-01
23  2.2000000000000E-01  1.8821946052813E+00  3.5968186723555E-01 -7.0518435885879E-01
24  2.3000000000000E-01  1.8897600542786E+00  3.7711888916735E-01 -6.0730952001701E-01
25  2.4000000000000E-01  1.8895528393261E+00  3.9491502664221E-01 -5.0248046270696E-01
26  2.5000000000000E-01  1.8817189131197E+00  4.1311051344253E-01 -3.9195223354383E-01
27  2.6000000000000E-01  1.8664433583110E+00  4.3174367706637E-01 -2.7701596886553E-01
28  2.7000000000000E-01  1.8439483754114E+00  4.5085027139260E-01 -1.5898054190182E-01
29  2.8000000000000E-01  1.8144910738520E+00  4.7046283448857E-01 -3.9154708412418E-02
30  2.9000000000000E-01  1.7783610907025E+00  4.9061008167459E-01  8.1169957877107E-02
31  3.0000000000000E-01  1.7358780618373E+00  5.1131634309822E-01  2.0073507543726E-01
32  3.1000000000000E-01  1.6873889702997E+00  5.3260105405023E-01  3.1833017760037E-01
33  3.2000000000000E-01  1.6332653962939E+00  5.5447830509582E-01  4.3280595016026E-01
34  3.3000000000000E-01  1.5739006926377E+00  5.7695645783198E-01  5.4308582494406E-01
35  3.4000000000000E-01  1.5097071086894E+00  6.0003783074170E-01  6.4817581113556E-01
36  3.5000000000000E-01  1.4411128847369E+00  6.2371845823230E-01  7.4717248804152E-01
37  3.6000000000000E-01  1.3685593376558E+00  6.4798792454841E-01  8.3926912504882E-01
38  3.7000000000000E-01  1.2924979573307E+00  6.7282927287322E-01  9.2375993576878E-01
39  3.8000000000000E-01  1.2133875319395E+00  6.9821898860328E-01  1.0000425128554E+00
40  3.9000000000000E-01  1.1316913187485E+00  7.2412705453192E-01  1.0676185268293E+00
41  4.0000000000000E-01  1.0478742755996E+00  7.5051707452949E-01  1.1260928056603E+00
42  4.1000000000000E-01  9.6240036681061E-01  7.7734646128798E-01  1.1751709411320E+00
43  4.2000000000000E-01  8.7572995579930E-01  8.0456668282227E-01  1.2146555925678E+00
44  4.3000000000000E-01  7.8831729538593E-01  8.3212356170550E-01  1.2444416778642E+00
45  4.4000000000000E-01  7.0060812546366E-01  8.5995762047224E-01  1.2645106556387E+00
46  4.5000000000000E-01  6.1303738655813E-01  8.8800446625749E-01  1.2749241104625E+00
47  4.6000000000000E-01  5.2602705673876E-01  9.1619520755224E-01  1.2758168555869E+00
48  4.7000000000000E-01  4.3998411840084E-01  9.4445689594636E-01  1.2673897643890E+00
49  4.8000000000000E-01  3.5529866061091E-01  9.7271298588836E-01  1.2499025331773E+00
50  4.9000000000000E-01  2.7234212199210E-01  1.0008838058088E+00  1.2236665644216E+00
51  5.0000000000000E-01  1.9146567851576E-01  1.0288870344134E+00  1.1890381413700E+00
52  5.1000000000000E-01  1.1299878004783E-01  1.0566381765374E+00  1.1464120429836E+00
53  5.2000000000000E-01  3.7247839058115E-02  1.0840510336394E+00  1.0962157228669E+00
54  5.3000000000000E-01 -3.5504925478523E-02  1.1110381647813E+00  1.0389041481289E+00
55  5.4000000000000E-01 -1.0500248629873E-01  1.1375113347638E+00  9.7495536471093E-01
56  5.5000000000000E-01 -1.7101384581140E-01  1.1633819469397E+00  9.0486682546662E-01
57  5.6000000000000E-01 -2.3333471174700E-01  1.1885614590803E+00  8.2915248706622E-01
58  5.7000000000000E-01 -2.9178800877782E-01  1.2129617815051E+00  7.4834065241536E-01
59  5.8000000000000E-01 -3.4622422476955E-01  1.2364956574706E+00  6.6297250755135E-01
60  5.9000000000000E-01 -3.9652159076125E-01  1.2590770265272E+00  5.7360127664371E-01
61  6.0000000000000E-01 -4.4258609427964E-01  1.2806213721850E+00  4.8079189645182E-01
62  6.1000000000000E-01 -4.8435132619029E-01  1.3010460557401E+00  3.8512109298488E-01
63  6.2000000000000E-01 -5.2177816197731E-01  1.3202706385177E+00  2.8717772860026E-01
64  6.3000000000000E-01 -5.5485427913539E-01  1.3382171950454E+00  1.8756327781287E-01
65  6.4000000000000E-01 -5.8359351324944E-01  1.3548106198013E+00  8.6892284822399E-02
66  6.5000000000000E-01 -6.0803505632873E-01  1.3699789301604E+00 -1.4207344603690E-02
67  6.6000000000000E-01 -6.2824250204508E-01  1.3836535680080E+00 -1.1509435979868E-01
68  6.7000000000000E-01 -6.4430274368774E-01  1.3957697021977E+00 -2.1511462414826E-01
69  6.8000000000000E-01 -6.5632473187599E-01  1.4062665336125E+00 -3.1360213645719E-01
70  6.9000000000000E-01 -6.6443810034533E-01  1.4150876040605E+00 -4.0988071719844E-01
71  7.0000000000000E-01 -6.6879166942254E-01  1.4221811096079E+00 -5.0326644089530E-01
72  7.1000000000000E-01 -6.6955183810457E-01  1.4275002182534E+00 -5.9307087168549E-01
73  7.2000000000000E-01 -6.6690087692903E-01  1.4310033910858E+00 -6.7860513261383E-01
74  7.3000000000000E-01 -6.6103513504283E-01  1.4326547052798E+00 -7.5918481109622E-01
75  7.4000000000000E-01 -6.5216317601106E-01  1.4324241764841E+00 -8.3413567409421E-01
76  7.5000000000000E-01 -6.4050385793245E-01  1.4302880773766E+00 -9.0280013759182E-01
77  7.6000000000000E-01 -6.2628437431266E-01  1.4262292484213E+00 -9.6454440680815E-01
78  7.7000000000000E-01 -6.0973827286663E-01  1.4202373961899E+00 -1.0187661769587E+00
79  7.8000000000000E-01 -5.9110346995246E-01  1.4123093740241E+00 -1.0649027600465E+00
80  7.9000000000000E-01 -5.7062027866056E-01  1.4024494393441E+00 -1.1024394818300E+00
81  8.0000000000000E-01 -5.4852946867709E-01  1.3906694815566E+00 -1.1309181753494E+00
82  8.1000000000000E-01 -5.2507037589594E-01  1.3769892143148E+00 -1.1499455837655E+00
83  8.2000000000000E-01 -5.0047907936101E-01  1.3614363258307E+00 -1.1592014761795E+00
84  8.3000000000000E-01 -4.7498666247649E-01  1.3440465810538E+00 -1.1584462758664E+00
85  8.4000000000000E-01 -4.4881757452970E-01  1.3248638698053E+00 -1.1475280011759E+00
86  8.5000000000000E-01 -4.2218810743387E-01  1.3039401954043E+00 -1.1263883252987E+00
87  8.6000000000000E-01 -3.9530500123205E-01  1.2813355989261E+00 -1.0950675720823E+00
88  8.7000000000000E-01 -3.6836419032219E-01  1.2571180149921E+00 -1.0537084809526E+00
89  8.8000000000000E-01 -3.4154970059181E-01  1.2313630558862E+00 -1.0025585944226E+00
90  8.9000000000000E-01 -3.1503270571334E-01  1.2041537218210E+00 -9.4197114623809E-01
91  9.0000000000000E-01 -2.8897074877949E-01  1.1755800362982E+00 -8.7240435638571E-01
92  9.1000000000000E-01 -2.6350713328471E-01  1.1457386067214E+00 -7.9441907035367E-01
93  9.2000000000000E-01 -2.3877048522060E-01  1.1147321116833E+00 -7.0867471349128E-01
94  9.3000000000000E-01 -2.1487448578822E-01  1.0826687176480E+00 -6.1592356629865E-01
95  9.4000000000000E-01 -1.9191777197725E-01  1.0496614290488E+00 -5.1700340218889E-01
96  9.5000000000000E-01 -1.6998400006097E-01  1.0158273770944E+00 -4.1282856488072E-01
97  9.6000000000000E-01 -1.4914206494568E-01  9.8128705379917E-01 -3.0437959725425E-01
98  9.7000000000000E-01 -1.2944646633067E-01  9.4616349888986E-01 -1.9269156644788E-01
99  9.8000000000000E-01 -1.1093781081592E-01  9.1058144827154E-01 -7.8841260372859E-02
100  9.9000000000000E-01 -9.3643437470720E-02  8.7466645363594E-01  3.6066542007820E-02
101  1.0000000000000E+00 -7.7578152976948E-02  8.3854398353940E-01  1.5091350104564E-01
102  1.0100000000000E+00 -6.2745061309218E-02  8.0233851685176E-01  2.6458260304950E-01
103  1.0200000000000E+00 -4.9136472029514E-02  7.6617263986424E-01  3.7597324499909E-01
104  1.0300000000000E+00 -3.6734870671407E-02  7.3016615853368E-01  4.8401625058872E-01
105  1.0400000000000E+00 -2.5513934376074E-02  6.9443523732493E-01  5.8768854786826E-01
106  1.0500000000000E+00 -1.5439575921259E-02  6.5909157589148E-01  6.8602724138105E-01
107  1.0600000000000E+00 -6.4709995540522E-03  6.2424163440660E-01  7.7814282000198E-01
108  1.0700000000000E+00  1.4382474136669E-03  5.8998591773235E-01  8.6323125541695E-01
109  1.0800000000000E+00  8.3392424720252E-03  5.5641832779919E-01  9.4058476519869E-01
110  1.0900000000000E+00  1.4286689406069E-02  5.2362559258174E-01  1.0096010382476E+00
111  1.1000000000000E+00  1.9337966296033E-02  4.9168677891443E-01  1.0697907485182E+00
112  1.1100000000000E+00  2.3552231426944E-02  4.6067289511190E-01  1.1207832149255E+00
113  1.1200000000000E+00  2.6989596875314E-02  4.3064658797643E-01  1.1623301002580E+00
114  1.1300000000000E+00  2.9710377770209E-02  4.0166193730011E-01  1.1943070794057E+00
115  1.1400000000000E+00  3.1774423378730E-02  3.7376434945086E-01  1.2167134459981E+00
116  1.1500000000000E+00  3.3240534251499E-02  3.4699055007300E-01  1.2296696664234E+00
117  1.1600000000000E+00  3.4165967752868E-02  3.2136867439200E-01  1.2334129296525E+00
118  1.1700000000000E+00  3.4606032397663E-02  2.9691845208987E-01  1.2282907802231E+00
119  1.1800000000000E+00  3.4613769588445E-02  2.7365148226547E-01  1.2147529587217E+00
120  1.1900000000000E+00  3.4239719603403E-02  2.5157159261906E-01  1.1933416089156E+00
121  1.2000000000000E+00  3.3531767074467E-02  2.3067527574007E-01  1.1646800423155E+00
122  1.2100000000000E+00  3.2535059735904E-02  2.1095219424597E-01  1.1294602789689E+00
123  1.2200000000000E+00  3.1291992939263E-02  1.9238574553525E-01  1.0884296072185E+00
124  1.2300000000000E+00  2.9842251349053E-02  1.7495367610135E-01  1.0423764244366E+00
125  1.2400000000000E+00  2.8222898352595E-02  1.5862873470423E-01  9.9211563537057E-01
126  1.2500000000000E+00  2.6468503063165E-02  1.4337935323235E-01  9.3847389425067E-01
127  1.2600000000000E+00  2.4611294357766E-02  1.2917034380233E-01  8.8227498140964E-01
128  1.2700000000000E+00  2.2681331173872E-02  1.1596360053913E-01  8.2432560478483E-01
129  1.2800000000000E+00  2.0706678284685E-02  1.0371879454980E-01  7.6540191159574E-01
130  1.2900000000000E+00  1.8713576966286E-02  9.2394050837679E-02  7.0623698598424E-01
131  1.3000000000000E+00  1.6726600348940E-02  8.1946596290675E-02  6.4750959484276E-01
132  1.3100000000000E+00  1.4768783783931E-02  7.2333368397547E-02  5.8983442704407E-01
133  1.3200000000000E+00  1.2861721234642E-02  6.3511574982013E-02  5.3375405131488E-01
134  1.3300000000000E+00  1.1025619493152E-02  5.5439195979019E-02  4.7973279562751E-01
135  1.3400000000000E+00  9.2793028956623E-03  4.8075419081311E-02  4.2815272706664E-01
136  1.3500000000000E+00  7.6401621348548E-03  4.1381001936883E-02  3.7931188627378E-01
137  1.3600000000000E+00  6.1240417203320E-03  3.5318554460181E-02  3.3342490534836E-01
138  1.3700000000000E+00  4.7450615805702E-03  2.9852735700477E-02  2.9062611340709E-01
139  1.3800000000000E+00  3.5153692099923E-03  2.4950360573152E-02  2.5097521036524E-01
140  1.3900000000000E+00  2.4448196121053E-03  2.0580412578754E-02  2.1446556759952E-01
141  1.4000000000000E+00  1.5405810564136E-03  1.6713959397664E-02  1.8103519439519E-01
142  1.4100000000000E+00  8.0666676103559E-04  1.3323970150082E-02  1.5058036935483E-01
143  1.4200000000000E+00  2.4337600530753E-04  1.0385017666294E-02  1.2297220733528E-01
144  1.4300000000000E+00 -1.5337603506388E-04  7.8728659124261E-03  9.8076305728087E-02
145  1.4400000000000E+00 -4.0433384001769E-04  5.7540138021760E-03  7.5959061278068E-02
146  1.4500000000000E+00 -5.3271217417759E-04  3.9973543693726E-03  5.6679064047484E-02
147  1.4600000000000E+00 -5.4586003846184E-04  2.5905077142910E-03  4.0003159754573E-02
148  1.4700000000000E+00 -4.6383256495336E-04  1.5160031317594E-03  2.5869978839057E-02
149  1.4800000000000E+00 -3.1848522709902E-04  7.5177242546123E-04  1.4395202403344E-02
150  1.4900000000000E+00 -1.5362689818933E-04  2.6965948779872E-04  5.8851528346328E-03
151  1.5000000000000E+00 -3.0018286237295E-05  3.9499763721963E-05  1.0038254454755E-03
152  1.5100000000000E+00  3.2297079891722E-06 -3.5203540449746E-06 -1.0004766611680E-04
153  1.5200000000000E+00 -8.9965604752767E-07  1.0815525983517E-06  2.8946732045209E-05
154  1.53  0. -0. -0.
155  1.54 -0. -0.  0.
156  1.55  0.  0.  0.
157  1.56  0.  0.  0.
158  1.57  0.  0.  0.
159  1.58  0.  0.  0.
160  1.59  0.  0.  0.
161  1.60  0.  0.  0.
162  1.61  0.  0.  0.
163  1.62  0.  0.  0.
164  1.63  0.  0.  0.
165  1.64  0.  0.  0.
166  1.65  0.  0.  0.
167  1.66  0.  0.  0.
168  1.67  0.  0.  0.
169  1.68  0.  0.  0.
170  1.69  0.  0.  0.
171  1.70  0.  0.  0.
172  1.71  0.  0.  0.
173  1.72  0.  0.  0.
174  1.73  0.  0.  0.
175  1.74  0.  0.  0.
176  1.75  0.  0.  0.
177  1.76  0.  0.  0.
178  1.77  0.  0.  0.
179  1.78  0.  0.  0.
180  1.79  0.  0.  0.
181  1.80  0.  0.  0.
182  1.81  0.  0.  0.
183  1.82  0.  0.  0.
184  1.83  0.  0.  0.
185  1.84  0.  0.  0.
186  1.85  0.  0.  0.
187  1.86  0.  0.  0.
188  1.87  0.  0.  0.
189  1.88  0.  0.  0.
190  1.89  0.  0.  0.
191  1.90  0.  0.  0.
192  1.91  0.  0.  0.
193  1.92  0.  0.  0.
194  1.93  0.  0.  0.
195  1.94  0.  0.  0.
196  1.95  0.  0.  0.
197  1.96  0.  0.  0.
198  1.97  0.  0.  0.
199  1.98  0.  0.  0.
200  1.99  0.  0.  0.
201  2.00  0.  0.  0.
202  2.01  0.  0.  0.
203  2.02  0.  0.  0.
204  2.03  0.  0.  0.
205  2.04  0.  0.  0.
206  2.05  0.  0.  0.
207  2.06  0.  0.  0.
208  2.07  0.  0.  0.
209  2.08  0.  0.  0.
210  2.09  0.  0.  0.
211  2.10  0.  0.  0.
212  2.11  0.  0.  0.
213  2.12  0.  0.  0.
214  2.13  0.  0.  0.
215  2.14  0.  0.  0.
216  2.15  0.  0.  0.
217  2.16  0.  0.  0.
218  2.17  0.  0.  0.
219  2.18  0.  0.  0.
220  2.19  0.  0.  0.
221  2.20  0.  0.  0.
222  2.21  0.  0.  0.
223  2.22  0.  0.  0.
224  2.23  0.  0.  0.
225  2.24  0.  0.  0.
226  2.25  0.  0.  0.
227  2.26  0.  0.  0.
228  2.27  0.  0.  0.
229  2.28  0.  0.  0.
230  2.29  0.  0.  0.
231  2.30  0.  0.  0.
232  2.31  0.  0.  0.
233  2.32  0.  0.  0.
234  2.33  0.  0.  0.
235  2.34  0.  0.  0.
236  2.35  0.  0.  0.
237  2.36  0.  0.  0.
238  2.37  0.  0.  0.
239  2.38  0.  0.  0.
240  2.39  0.  0.  0.
241  2.40  0.  0.  0.
242  2.41  0.  0.  0.
243  2.42  0.  0.  0.
244  2.43  0.  0.  0.
245  2.44  0.  0.  0.
246  2.45  0.  0.  0.
247  2.46  0.  0.  0.
248  2.47  0.  0.  0.
249  2.48  0.  0.  0.
250  2.49  0.  0.  0.
251  2.50  0.  0.  0.
252  2.51  0.  0.  0.
253  2.52  0.  0.  0.
254  2.53  0.  0.  0.
255  2.54  0.  0.  0.
256  2.55  0.  0.  0.
257  2.56  0.  0.  0.
258  2.57  0.  0.  0.
259  2.58  0.  0.  0.
260  2.59  0.  0.  0.
261  2.60  0.  0.  0.
262  2.61  0.  0.  0.
263  2.62  0.  0.  0.
264  2.63  0.  0.  0.
265  2.64  0.  0.  0.
266  2.65  0.  0.  0.
267  2.66  0.  0.  0.
268  2.67  0.  0.  0.
269  2.68  0.  0.  0.
270  2.69  0.  0.  0.
271  2.70  0.  0.  0.
272  2.71  0.  0.  0.
273  2.72  0.  0.  0.
274  2.73  0.  0.  0.
275  2.74  0.  0.  0.
276  2.75  0.  0.  0.
277  2.76  0.  0.  0.
278  2.77  0.  0.  0.
279  2.78  0.  0.  0.
280  2.79  0.  0.  0.
281  2.80  0.  0.  0.
282  2.81  0.  0.  0.
283  2.82  0.  0.  0.
284  2.83  0.  0.  0.
285  2.84  0.  0.  0.
286  2.85  0.  0.  0.
287  2.86  0.  0.  0.
288  2.87  0.  0.  0.
289  2.88  0.  0.  0.
290  2.89  0.  0.  0.
291  2.90  0.  0.  0.
292  2.91  0.  0.  0.
293  2.92  0.  0.  0.
294  2.93  0.  0.  0.
295  2.94  0.  0.  0.
296  2.95  0.  0.  0.
297  2.96  0.  0.  0.
298  2.97  0.  0.  0.
299  2.98  0.  0.  0.
300  2.99  0.  0.  0.
301  3.00  0.  0.  0.
302  3.01  0.  0.  0.
303  3.02  0.  0.  0.
304  3.03  0.  0.  0.
305  3.04  0.  0.  0.
306  3.05  0.  0.  0.
307  3.06  0.  0.  0.
308  3.07  0.  0.  0.
309  3.08  0.  0.  0.
310  3.09  0.  0.  0.
311  3.10  0.  0.  0.
312  3.11  0.  0.  0.
313  3.12  0.  0.  0.
314  3.13  0.  0.  0.
315  3.14  0.  0.  0.
316  3.15  0.  0.  0.
317  3.16  0.  0.  0.
318  3.17  0.  0.  0.
319  3.18  0.  0.  0.
320  3.19  0.  0.  0.
321  3.20  0.  0.  0.
322  3.21  0.  0.  0.
323  3.22  0.  0.  0.
324  3.23  0.  0.  0.
325  3.24  0.  0.  0.
326  3.25  0.  0.  0.
327  3.26  0.  0.  0.
328  3.27  0.  0.  0.
329  3.28  0.  0.  0.
330  3.29  0.  0.  0.
331  3.30  0.  0.  0.
332  3.31  0.  0.  0.
333  3.32  0.  0.  0.
334  3.33  0.  0.  0.
335  3.34  0.  0.  0.
336  3.35  0.  0.  0.
337  3.36  0.  0.  0.
338  3.37  0.  0.  0.
339  3.38  0.  0.  0.
340  3.39  0.  0.  0.
341  3.40  0.  0.  0.
342  3.41  0.  0.  0.
343  3.42  0.  0.  0.
344  3.43  0.  0.  0.
345  3.44  0.  0.  0.
346  3.45  0.  0.  0.
347  3.46  0.  0.  0.
348  3.47  0.  0.  0.
349  3.48  0.  0.  0.
350  3.49  0.  0.  0.
351  3.50  0.  0.  0.
352  3.51  0.  0.  0.
353  3.52  0.  0.  0.
354  3.53  0.  0.  0.
355  3.54  0.  0.  0.
356  3.55  0.  0.  0.
357  3.56  0.  0.  0.
358  3.57  0.  0.  0.
359  3.58  0.  0.  0.
360  3.59  0.  0.  0.
361  3.60  0.  0.  0.
362  3.61  0.  0.  0.
363  3.62  0.  0.  0.
364  3.63  0.  0.  0.
365  3.64  0.  0.  0.
366  3.65  0.  0.  0.
367  3.66  0.  0.  0.
368  3.67  0.  0.  0.
369  3.68  0.  0.  0.
370  3.69  0.  0.  0.
371  3.70  0.  0.  0.
372  3.71  0.  0.  0.
373  3.72  0.  0.  0.
374  3.73  0.  0.  0.
375  3.74  0.  0.  0.
376  3.75  0.  0.  0.
377  3.76  0.  0.  0.
378  3.77  0.  0.  0.
379  3.78  0.  0.  0.
380  3.79  0.  0.  0.
381  3.80  0.  0.  0.
382  3.81  0.  0.  0.
383  3.82  0.  0.  0.
384  3.83  0.  0.  0.
385  3.84  0.  0.  0.
386  3.85  0.  0.  0.
387  3.86  0.  0.  0.
388  3.87  0.  0.  0.
389  3.88  0.  0.  0.
390  3.89  0.  0.  0.
391  3.90  0.  0.  0.
392  3.91  0.  0.  0.
393  3.92  0.  0.  0.
394  3.93  0.  0.  0.
395  3.94  0.  0.  0.
396  3.95  0.  0.  0.
397  3.96  0.  0.  0.
398  3.97  0.  0.  0.
399  3.98  0.  0.  0.
400  3.99  0.  0.  0.
401  4.00  0.  0.  0.
402  4.01  0.  0.  0.
403  4.02  0.  0.  0.
404  4.03  0.  0.  0.
405  4.04  0.  0.  0.
406  4.05  0.  0.  0.
407  4.06  0.  0.  0.
408  4.07  0.  0.  0.
409  4.08  0.  0.  0.
410  4.09  0.  0.  0.
411  4.10  0.  0.  0.
412  4.11  0.  0.  0.
413  4.12  0.  0.  0.
414  4.13  0.  0.  0.
415  4.14  0.  0.  0.
416  4.15  0.  0.  0.
417  4.16  0.  0.  0.
418  4.17  0.  0.  0.
419  4.18  0.  0.  0.
420  4.19  0.  0.  0.
421  4.20  0.  0.  0.
422  4.21  0.  0.  0.
423  4.22  0.  0.  0.
424  4.23  0.  0.  0.
425  4.24  0.  0.  0.
426  4.25  0.  0.  0.
427  4.26  0.  0.  0.
428  4.27  0.  0.  0.
429  4.28  0.  0.  0.
430  4.29  0.  0.  0.
431  4.30  0.  0.  0.
432  4.31  0.  0.  0.
433  4.32  0.  0.  0.
434  4.33  0.  0.  0.
435  4.34  0.  0.  0.
436  4.35  0.  0.  0.
437  4.36  0.  0.  0.
438  4.37  0.  0.  0.
439  4.38  0.  0.  0.
440  4.39  0.  0.  0.
441  4.40  0.  0.  0.
442  4.41  0.  0.  0.
443  4.42  0.  0.  0.
444  4.43  0.  0.  0.
445  4.44  0.  0.  0.
446  4.45  0.  0.  0.
447  4.46  0.  0.  0.
448  4.47  0.  0.  0.
449  4.48  0.  0.  0.
450  4.49  0.  0.  0.
451  4.50  0.  0.  0.
452  4.51  0.  0.  0.
453  4.52  0.  0.  0.
454  4.53  0.  0.  0.
455  4.54  0.  0.  0.
456  4.55  0.  0.  0.
457  4.56  0.  0.  0.
458  4.57  0.  0.  0.
459  4.58  0.  0.  0.
460  4.59  0.  0.  0.
461  4.60  0.  0.  0.
462  4.61  0.  0.  0.
463  4.62  0.  0.  0.
464  4.63  0.  0.  0.
465  4.64  0.  0.  0.
466  4.65  0.  0.  0.
467  4.66  0.  0.  0.
468  4.67  0.  0.  0.
469  4.68  0.  0.  0.
470  4.69  0.  0.  0.
471  4.70  0.  0.  0.
472  4.71  0.  0.  0.
473  4.72  0.  0.  0.
474  4.73  0.  0.  0.
475  4.74  0.  0.  0.
476  4.75  0.  0.  0.
477  4.76  0.  0.  0.
478  4.77  0.  0.  0.
479  4.78  0.  0.  0.
480  4.79  0.  0.  0.
481  4.80  0.  0.  0.
482  4.81  0.  0.  0.
483  4.82  0.  0.  0.
484  4.83  0.  0.  0.
485  4.84  0.  0.  0.
486  4.85  0.  0.  0.
487  4.86  0.  0.  0.
488  4.87  0.  0.  0.
489  4.88  0.  0.  0.
490  4.89  0.  0.  0.
491  4.90  0.  0.  0.
492  4.91  0.  0.  0.
493  4.92  0.  0.  0.
494  4.93  0.  0.  0.
495  4.94  0.  0.  0.
496  4.95  0.  0.  0.
497  4.96  0.  0.  0.
498  4.97  0.  0.  0.
499  4.98  0.  0.  0.
500  4.99  0.  0.  0.
501  5.00  0.  0.  0.
502  5.01  0.  0.  0.
503  5.02  0.  0.  0.
504  5.03  0.  0.  0.
505  5.04  0.  0.  0.
506  5.05  0.  0.  0.
507  5.06  0.  0.  0.
508  5.07  0.  0.  0.
509  5.08  0.  0.  0.
510  5.09  0.  0.  0.
511  5.10  0.  0.  0.
512  5.11  0.  0.  0.
513  5.12  0.  0.  0.
514  5.13  0.  0.  0.
515  5.14  0.  0.  0.
516  5.15  0.  0.  0.
517  5.16  0.  0.  0.
518  5.17  0.  0.  0.
519  5.18  0.  0.  0.
520  5.19  0.  0.  0.
521  5.20  0.  0.  0.
522  5.21  0.  0.  0.
523  5.22  0.  0.  0.
524  5.23  0.  0.  0.
525  5.24  0.  0.  0.
526  5.25  0.  0.  0.
527  5.26  0.  0.  0.
528  5.27  0.  0.  0.
529  5.28  0.  0.  0.
530  5.29  0.  0.  0.
531  5.30  0.  0.  0.
532  5.31  0.  0.  0.
533  5.32  0.  0.  0.
534  5.33  0.  0.  0.
535  5.34  0.  0.  0.
536  5.35  0.  0.  0.
537  5.36  0.  0.  0.
538  5.37  0.  0.  0.
539  5.38  0.  0.  0.
540  5.39  0.  0.  0.
541  5.40  0.  0.  0.
542  5.41  0.  0.  0.
543  5.42  0.  0.  0.
544  5.43  0.  0.  0.
545  5.44  0.  0.  0.
546  5.45  0.  0.  0.
547  5.46  0.  0.  0.
548  5.47  0.  0.  0.
549  5.48  0.  0.  0.
550  5.49  0.  0.  0.
551  5.50  0.  0.  0.
552  5.51  0.  0.  0.
553  5.52  0.  0.  0.
554  5.53  0.  0.  0.
555  5.54  0.  0.  0.
556  5.55  0.  0.  0.
557  5.56  0.  0.  0.
558  5.57  0.  0.  0.
559  5.58  0.  0.  0.
560  5.59  0.  0.  0.
561  5.60  0.  0.  0.
562  5.61  0.  0.  0.
563  5.62  0.  0.  0.
564  5.63  0.  0.  0.
565  5.64  0.  0.  0.
566  5.65  0.  0.  0.
567  5.66  0.  0.  0.
568  5.67  0.  0.  0.
569  5.68  0.  0.  0.
570  5.69  0.  0.  0.
571  5.70  0.  0.  0.
572  5.71  0.  0.  0.
573  5.72  0.  0.  0.
574  5.73  0.  0.  0.
575  5.74  0.  0.  0.
576  5.75  0.  0.  0.
577  5.76  0.  0.  0.
578  5.77  0.  0.  0.
579  5.78  0.  0.  0.
580  5.79  0.  0.  0.
581  5.80  0.  0.  0.
582  5.81  0.  0.  0.
583  5.82  0.  0.  0.
584  5.83  0.  0.  0.
585  5.84  0.  0.  0.
586  5.85  0.  0.  0.
587  5.86  0.  0.  0.
588  5.87  0.  0.  0.
589  5.88  0.  0.  0.
590  5.89  0.  0.  0.
591  5.90  0.  0.  0.
592  5.91  0.  0.  0.
593  5.92  0.  0.  0.
594  5.93  0.  0.  0.
595  5.94  0.  0.  0.
596  5.95  0.  0.  0.
597  5.96  0.  0.  0.
598  5.97  0.  0.  0.
599  5.98  0.  0.  0.
600  5.99  0.  0.  0.
1                         1.0260464378953E+01 -1.0494235912774E+00
1  0.0000000000000E+00  1.4703396555849E-09 -7.0502979290180E-10
2  1.0000000000000E-02  2.9284782918026E-03  6.9351198549085E-06
3  2.0000000000000E-02  1.1694703598818E-02  2.9204730494244E-05
4  3.0000000000000E-02  2.6241173684955E-02  7.1183055583461E-05
5  4.0000000000000E-02  4.6472472313082E-02  1.4009914331942E-04
6  5.0000000000000E-02  7.2255897888078E-02  2.4594641023214E-04
7  6.0000000000000E-02  1.0342233837608E-01  4.0135902323844E-04
8  7.0000000000000E-02  1.3976738732409E-01  6.2145804693144E-04
9  8.0000000000000E-02  1.8105269433381E-01  9.2367098812001E-04
10  9.0000000000000E-02  2.2700754188154E-01  1.3275289803698E-03
11  1.0000000000000E-01  2.7733063892651E-01  1.8544463519770E-03
12  1.1000000000000E-01  3.3169212031791E-01  2.5274876976844E-03
13  1.2000000000000E-01  3.8973573960260E-01  3.3711278171906E-03
14  1.3000000000000E-01  4.5108124145938E-01  4.4110099849450E-03
15  1.4000000000000E-01  5.1532689864962E-01  5.6737079722086E-03
16  1.5000000000000E-01  5.8205219709039E-01  7.1864970536709E-03
17  1.6000000000000E-01  6.5082065143454E-01  8.9771389007056E-03
18  1.7000000000000E-01  7.2118273239725E-01  1.1073684798596E-02
19  1.8000000000000E-01  7.9267888601304E-01  1.3504301036037E-02
20  1.9000000000000E-01  8.6484262405624E-01  1.6297119615894E-02
21  2.0000000000000E-01  9.3720366402574E-01  1.9480116642606E-02
22  2.1000000000000E-01  1.0092910963981E+00  2.3081019873155E-02
23  2.2000000000000E-01  1.0806365563049E+00  2.7127245995862E-02
24  2.3000000000000E-01  1.1507773764065E+00  3.1645867247358E-02
25  2.4000000000000E-01  1.2192596975279E+00  3.6663606016458E-02
26  2.5000000000000E-01  1.2856415136065E+00  4.2206855138570E-02
27  2.6000000000000E-01  1.3494956276856E+00  4.8301720680051E-02
28  2.7000000000000E-01  1.4104124960793E+00  5.4974083171991E-02
29  2.8000000000000E-01  1.4680029384467E+00  6.2249672499813E-02
30  2.9000000000000E-01  1.5219006923393E+00  7.0154151009485E-02
31  3.0000000000000E-01  1.5717647918353E+00  7.8713198871652E-02
32  3.1000000000000E-01  1.6172817511432E+00  8.7952595367421E-02
33  3.2000000000000E-01  1.6581675355361E+00  9.7898289536758E-02
34  3.3000000000000E-01  1.6941693036640E+00  1.0857645357186E-01
35  3.4000000000000E-01  1.7250669071692E+00  1.2001351244938E-01
36  3.5000000000000E-01  1.7506741355842E+00  1.3223614357869E-01
37  3.6000000000000E-01  1.7708396967044E+00  1.4527124069733E-01
38  3.7000000000000E-01  1.7854479249807E+00  1.5914583686194E-01
39  3.8000000000000E-01  1.7944192129369E+00  1.7388698215590E-01
40  3.9000000000000E-01  1.7977101631708E+00  1.8952157264805E-01
41  4.0000000000000E-01  1.7953134611008E+00  2.0607612817459E-01
42  4.1000000000000E-01  1.7872574712547E+00  2.2357651765865E-01
43  4.2000000000000E-01  1.7736055625252E+00  2.4204763190588E-01
44  4.3000000000000E-01  1.7544551704047E+00  2.6151300509507E-01
45  4.4000000000000E-01  1.7299366067310E+00  2.8199438749409E-01
46  4.5000000000000E-01  1.7002116298901E+00  3.0351127324454E-01
47  4.6000000000000E-01  1.6654717907000E+00  3.2608038834604E-01
48  4.7000000000000E-01  1.6259365713123E+00  3.4971514520379E-01
49  4.8000000000000E-01  1.5818513363869E+00  3.7442507125335E-01
50  4.9000000000000E-01  1.5334851174921E+00  4.0021522021825E-01
51  5.0000000000000E-01  1.4811282531344E+00  4.2708557546334E-01
52  5.1000000000000E-01  1.4250899080166E+00  4.5503045565789E-01
53  5.2000000000000E-01  1.3656954960259E+00  4.8403793353775E-01
54  5.3000000000000E-01  1.3032840320803E+00  5.1408927893777E-01
55  5.4000000000000E-01  1.2382054382737E+00  5.4515843744335E-01
56  5.5000000000000E-01  1.1708178297807E+00  5.7721155597246E-01
57  5.6000000000000E-01  1.1014848056930E+00  6.1020656634410E-01
58  5.7000000000000E-01  1.0305727693821E+00  6.4409283741410E-01
59  5.8000000000000E-01  9.5844830211023E-01  6.7881090566955E-01
60  5.9000000000000E-01  8.8547561247887E-01  7.1429229327708E-01
61  6.0000000000000E-01  8.1201408290918E-01  7.5045942149036E-01
62  6.1000000000000E-01  7.3841593273058E-01  7.8722562605522E-01
63  6.2000000000000E-01  6.6502401562828E-01  8.2449527982749E-01
64  6.3000000000000E-01  5.9216976720051E-01  8.6216402626256E-01
65  6.4000000000000E-01  5.2017131623347E-01  9.0011912577312E-01
66  6.5000000000000E-01  4.4933177104718E-01  9.3823991521259E-01
67  6.6000000000000E-01  3.7993768993613E-01  9.7639837895620E-01
68  6.7000000000000E-01  3.1225774235838E-01  1.0144598282527E+00
69  6.8000000000000E-01  2.4654156515177E-01  1.0522836837391E+00
70  6.9000000000000E-01  1.8301881571156E-01  1.0897243542827E+00
71  7.0000000000000E-01  1.2189842178376E-01  1.1266322036693E+00
72  7.1000000000000E-01  6.3368025345043E-02  1.1628545951270E+00
73  7.2000000000000E-01  7.5936159842815E-03  1.1982370022883E+00
74  7.3000000000000E-01 -4.5280652701536E-02  1.2326241739758E+00
75  7.4000000000000E-01 -9.5132471906921E-02  1.2658613391745E+00
76  7.5000000000000E-01 -1.4186122134724E-01  1.2977954377450E+00
77  7.6000000000000E-01 -1.8538765895959E-01  1.3282763618484E+00
78  7.7000000000000E-01 -2.2565346869661E-01  1.3571581927183E+00
79  7.8000000000000E-01 -2.6262067937729E-01  1.3843004173231E+00
80  7.9000000000000E-01 -2.9627096816121E-01  1.4095691096237E+00
81  8.0000000000000E-01 -3.2660486257539E-01  1.4328380615437E+00
82  8.1000000000000E-01 -3.5364085515099E-01  1.4539898494222E+00
83  8.2000000000000E-01 -3.7741444463035E-01  1.4729168226074E+00
84  8.3000000000000E-01 -3.9797711739548E-01  1.4895220019520E+00
85  8.4000000000000E-01 -4.1539528226543E-01  1.5037198772718E+00
86  8.5000000000000E-01 -4.2974917113095E-01  1.5154370943054E+00
87  8.6000000000000E-01 -4.4113171706431E-01  1.5246130233350E+00
88  8.7000000000000E-01 -4.4964742058463E-01  1.5312002033700E+00
89  8.8000000000000E-01 -4.5541121370253E-01  1.5351646576268E+00
90  8.9000000000000E-01 -4.5854733023979E-01  1.5364860779205E+00
91  9.0000000000000E-01 -4.5918818974882E-01  1.5351578774930E+00
92  9.1000000000000E-01 -4.5747330117259E-01  1.5311871136913E+00
93  9.2000000000000E-01 -4.5354819121555E-01  1.5245942837623E+00
94  9.3000000000000E-01 -4.4756336126745E-01  1.5154129987931E+00
95  9.4000000000000E-01 -4.3967327565931E-01  1.5036895424881E+00
96  9.5000000000000E-01 -4.3003538305808E-01  1.4894823229925E+00