Ra    ONCVPSP-4.0.1  r_core=   1.60343   1.60343   1.75396
     88.0000     28.0000      230825    zatom,zion,pspd
     8      11   2     4   600     0    pspcod,pspxc,lmax,lloc,mmax,r2well
  5.99000000  5.00000000  0.00000000    rchrg fchrg qchrg
     3     3     2     0    nproj
     3     1           extension_switch
     4     4     0    nprojso
   0                         9.2460122454665E+00 -3.8490581856182E+00  5.3849400208827E-01
     1  0.0000000000000E+00 -1.9187000876997E-09 -5.8580529316288E-11 -6.8519802609579E-09
     2  1.0000000000000E-02  1.1811272060731E-01  3.2979981380542E-02  4.7828186708175E-02
     3  2.0000000000000E-02  2.3562534805898E-01  6.5945256469645E-02  9.5024290399211E-02
     4  3.0000000000000E-02  3.5194187748754E-01  9.8881101607205E-02  1.4096402773111E-01
     5  4.0000000000000E-02  4.6647444162657E-01  1.3177275794432E-01  1.8503860362278E-01
     6  5.0000000000000E-02  5.7864728267165E-01  1.6460541273571E-01  2.2666217945029E-01
     7  6.0000000000000E-02  6.8790060920272E-01  1.9736417933927E-01  2.6527901510224E-01
     8  7.0000000000000E-02  7.9369430214667E-01  2.3003407556245E-01  3.0037018438717E-01
     9  8.0000000000000E-02  8.9551143567754E-01  2.6260000005383E-01  3.3145977013813E-01
    10  9.0000000000000E-02  9.9286158129362E-01  2.9504670650868E-01  3.5812045369679E-01
    11  1.0000000000000E-01  1.0852838660404E+00  3.2735877553924E-01  3.7997842314279E-01
    12  1.1000000000000E-01  1.1723497589226E+00  3.5952058415038E-01  3.9671753549006E-01
    13  1.2000000000000E-01  1.2536655629223E+00  3.9151627285861E-01  4.0808267992033E-01
    14  1.3000000000000E-01  1.3288745936608E+00  4.2332971059442E-01  4.1388230175389E-01
    15  1.4000000000000E-01  1.3976590295549E+00  4.5494445763219E-01  4.1399006006140E-01
    16  1.5000000000000E-01  1.4597414222659E+00  4.8634372689635E-01  4.0834560536037E-01
    17  1.6000000000000E-01  1.5148858602678E+00  5.1751034409474E-01  3.9695447750231E-01
    18  1.7000000000000E-01  1.5628987824002E+00  5.4842670722738E-01  3.7988713739057E-01
    19  1.8000000000000E-01  1.6036294422758E+00  5.7907474610973E-01  3.5727715936449E-01
    20  1.9000000000000E-01  1.6369700283149E+00  6.0943588263048E-01  3.2931862371284E-01
    21  2.0000000000000E-01  1.6628554479261E+00  6.3949099253437E-01  2.9626276062613E-01
    22  2.1000000000000E-01  1.6812627879011E+00  6.6922036957762E-01  2.5841390778359E-01
    23  2.2000000000000E-01  1.6922104663775E+00  6.9860369294609E-01  2.1612485350138E-01
    24  2.3000000000000E-01  1.6957570947216E+00  7.2761999885277E-01  1.6979164580494E-01
    25  2.4000000000000E-01  1.6920000703455E+00  7.5624765724109E-01  1.1984795479122E-01
    26  2.5000000000000E-01  1.6810739237673E+00  7.8446435451209E-01  6.6759081113502E-02
    27  2.6000000000000E-01  1.6631484451356E+00  8.1224708316758E-01  1.1015707275052E-02
    28  2.7000000000000E-01  1.6384266169364E+00  8.3957213921701E-01 -4.6872509385794E-02
    29  2.8000000000000E-01  1.6071423806858E+00  8.6641512813370E-01 -1.0638340262566E-01
    30  2.9000000000000E-01  1.5695582660693E+00  8.9275098006666E-01 -1.6698872389686E-01
    31  3.0000000000000E-01  1.5259629112319E+00  9.1855397491904E-01 -2.2816043415726E-01
    32  3.1000000000000E-01  1.4766685027498E+00  9.4379777779362E-01 -2.8937676976495E-01
    33  3.2000000000000E-01  1.4220081632562E+00  9.6845548518243E-01 -3.5012799713380E-01
    34  3.3000000000000E-01  1.3623333137567E+00  9.9249968214224E-01 -4.0992177797439E-01
    35  3.4000000000000E-01  1.2980110363953E+00  1.0159025105536E+00 -4.6828807528259E-01
    36  3.5000000000000E-01  1.2294214618452E+00  1.0386357484099E+00 -5.2478353962480E-01
    37  3.6000000000000E-01  1.1569552036397E+00  1.0606708999255E+00 -5.7899532551086E-01
    38  3.7000000000000E-01  1.0810108596712E+00  1.0819792960976E+00 -6.3054429854674E-01
    39  3.8000000000000E-01  1.0019925988038E+00  1.1025322051937E+00 -6.7908760544608E-01
    40  3.9000000000000E-01  9.2030784813445E-01  1.1223009524882E+00 -7.2432059059473E-01
    41  4.0000000000000E-01  8.3636509391317E-01  1.1412570484189E+00 -7.6597805456575E-01
    42  4.1000000000000E-01  7.5057180658234E-01  1.1593723241972E+00 -8.0383486148439E-01
    43  4.2000000000000E-01  6.6333249782344E-01  1.1766190737746E+00 -8.3770591332284E-01
    44  4.3000000000000E-01  5.7504691498592E-01  1.1929702009546E+00 -8.6744551980363E-01
    45  4.4000000000000E-01  4.8610837583846E-01  1.2083993703354E+00 -8.9294620247081E-01
    46  4.5000000000000E-01  3.9690224427803E-01  1.2228811606876E+00 -9.1413698046205E-01
    47  4.6000000000000E-01  3.0780454548911E-01  1.2363912193024E+00 -9.3098119344530E-01
    48  4.7000000000000E-01  2.1918071709834E-01  1.2489064158040E+00 -9.4347392393947E-01
    49  4.8000000000000E-01  1.3138449114518E-01  1.2604049938906E+00 -9.5163908671942E-01
    50  4.9000000000000E-01  4.4756900208854E-02  1.2708667194659E+00 -9.5552625713323E-01
    51  5.0000000000000E-01 -4.0374600184925E-02  1.2802730236408E+00 -9.5520731287447E-01
    52  5.1000000000000E-01 -1.2369690169758E-01  1.2886071391224E+00 -9.5077296503196E-01
    53  5.2000000000000E-01 -2.0491191533721E-01  1.2958542285657E+00 -9.4232925408867E-01
    54  5.3000000000000E-01 -2.8373715551200E-01  1.3020015035434E+00 -9.2999408496366E-01
    55  5.4000000000000E-01 -3.5990624595645E-01  1.3070383328868E+00 -9.1389387226549E-01
    56  5.5000000000000E-01 -4.3316935735531E-01  1.3109563392649E+00 -8.9416036270699E-01
    57  5.6000000000000E-01 -5.0329358608500E-01  1.3137494829989E+00 -8.7092769621041E-01
    58  5.7000000000000E-01 -5.7006328286304E-01  1.3154141322548E+00 -8.4432976075629E-01
    59  5.8000000000000E-01 -6.3328033925842E-01  1.3159491189098E+00 -8.1449788859658E-01
    60  5.9000000000000E-01 -6.9276443900357E-01  1.3153557795542E+00 -7.8155893323984E-01
    61  6.0000000000000E-01 -7.4835327988893E-01  1.3136379812606E+00 -7.4563375777234E-01
    62  6.1000000000000E-01 -7.9990277074917E-01  1.3108021319259E+00 -7.0683615578549E-01
    63  6.2000000000000E-01 -8.4728720669780E-01  1.3068571751681E+00 -6.6527221660650E-01
    64  6.3000000000000E-01 -8.9039942437245E-01  1.3018145699344E+00 -6.2104013686525E-01
    65  6.4000000000000E-01 -9.2915093754957E-01  1.2956882551463E+00 -5.7423047085231E-01
    66  6.5000000000000E-01 -9.6347205211044E-01  1.2884945998722E+00 -5.2492680280727E-01
    67  6.6000000000000E-01 -9.9331195802627E-01  1.2802523396711E+00 -4.7320681540411E-01
    68  6.7000000000000E-01 -1.0186387948059E+00  1.2709824998962E+00 -4.1914372041240E-01
    69  6.8000000000000E-01 -1.0394396857508E+00  1.2607083068763E+00 -3.6280800998119E-01
    70  6.9000000000000E-01 -1.0557207354099E+00  1.2494550880078E+00 -3.0426948033533E-01
    71  7.0000000000000E-01 -1.0675069838495E+00  1.2372501618905E+00 -2.4359947400439E-01
    72  7.1000000000000E-01 -1.0748423107649E+00  1.2241227197182E+00 -1.8087328214074E-01
    73  7.2000000000000E-01 -1.0777892820817E+00  1.2101036992009E+00 -1.1617264507311E-01
    74  7.3000000000000E-01 -1.0764289315316E+00  1.1952256523345E+00 -4.9588287062705E-02
    75  7.4000000000000E-01 -1.0708604697488E+00  1.1795226083601E+00  1.8777579700254E-02
    76  7.5000000000000E-01 -1.0612009137199E+00  1.1630299332555E+00  8.8808846484519E-02
    77  7.6000000000000E-01 -1.0475846299278E+00  1.1457841870884E+00  1.6037325783626E-01
    78  7.7000000000000E-01 -1.0301627852541E+00  1.1278229805235E+00  2.3332038007284E-01
    79  7.8000000000000E-01 -1.0091027006271E+00  1.1091848317260E+00  3.0747984475048E-01
    80  7.9000000000000E-01 -9.8458710351333E-01  1.0899090248336E+00  3.8265991837843E-01
    81  8.0000000000000E-01 -9.5681327662657E-01  1.0700354710856E+00  4.5864644364677E-01
    82  8.1000000000000E-01 -9.2599210164398E-01  1.0496045736019E+00  5.3520219056911E-01
    83  8.2000000000000E-01 -8.9234699825269E-01  1.0286570966954E+00  6.1206664833484E-01
    84  8.3000000000000E-01 -8.5611276046810E-01  1.0072340404833E+00  6.8895628047273E-01
    85  8.4000000000000E-01 -8.1753429384015E-01  9.8537652144086E-01  7.6556525728331E-01
    86  8.5000000000000E-01 -7.7686525886077E-01  9.6312565940757E-01  8.4156667057668E-01
    87  8.6000000000000E-01 -7.3436662757392E-01  9.4052247142868E-01  9.1661422670522E-01
    88  8.7000000000000E-01 -6.9030516203550E-01  9.1760777267898E-01  9.9034440487516E-01
    89  8.8000000000000E-01 -6.4495182483963E-01  8.9442208458883E-01  1.0623790589274E+00
    90  8.9000000000000E-01 -5.9858013339364E-01  8.7100555016577E-01  1.1323284323339E+00
    91  9.0000000000000E-01 -5.5146447094989E-01  8.4739785638694E-01  1.1997945482435E+00
    92  9.1000000000000E-01 -5.0387836856887E-01  8.2363816342718E-01  1.2643749291362E+00
    93  9.2000000000000E-01 -4.5609277316248E-01  7.9976504038784E-01  1.3256665941721E+00
    94  9.3000000000000E-01 -4.0837431753364E-01  7.7581640710378E-01  1.3832702767335E+00
    95  9.4000000000000E-01 -3.6098360886588E-01  7.5182948153104E-01  1.4367948000869E+00
    96  9.5000000000000E-01 -3.1417355241367E-01  7.2784073215784E-01  1.4858615455804E+00
    97  9.6000000000000E-01 -2.6818772718779E-01  7.0388583483670E-01  1.5301089454493E+00
    98  9.7000000000000E-01 -2.2325883021885E-01  6.7999963340596E-01  1.5691969311144E+00
    99  9.8000000000000E-01 -1.7960720550875E-01  6.5621610345656E-01  1.6028112679075E+00
   100  9.9000000000000E-01 -1.3743947305638E-01  6.3256831860229E-01  1.6306677083813E+00
   101  1.0000000000000E+00 -9.6947272369798E-02  6.0908841863085E-01  1.6525158987919E+00
   102  1.0100000000000E+00 -5.8306133671326E-02  5.8580757894633E-01  1.6681429769006E+00
   103  1.0200000000000E+00 -2.1674488577154E-02  5.6275598076204E-01  1.6773768038799E+00
   104  1.0300000000000E+00  1.2807169586953E-02  5.3996278156292E-01  1.6800887787465E+00
   105  1.0400000000000E+00  4.5016967464581E-02  5.1745608542952E-01  1.6761961902652E+00
   106  1.0500000000000E+00  7.4852168913188E-02  4.9526291289795E-01  1.6656640685933E+00
   107  1.0600000000000E+00  1.0222952343183E-01  4.7340917012008E-01  1.6485065068693E+00
   108  1.0700000000000E+00  1.2708544352714E-01  4.5191961718570E-01  1.6247874314356E+00
   109  1.0800000000000E+00  1.4937601094632E-01  4.3081783556838E-01  1.5946208081835E+00
   110  1.0900000000000E+00  1.6907681389602E-01  4.1012619475936E-01  1.5581702815216E+00
   111  1.1000000000000E+00  1.8618261952674E-01  3.8986581825597E-01  1.5156482515089E+00
   112  1.1100000000000E+00  2.0070688805541E-01  3.7005654917014E-01  1.4673144035686E+00
   113  1.1200000000000E+00  2.1268113689832E-01  3.5071691581695E-01  1.4134737138099E+00
   114  1.1300000000000E+00  2.2215416503770E-01  3.3186409773003E-01  1.3544739610640E+00
   115  1.1400000000000E+00  2.2919114953780E-01  3.1351389262866E-01  1.2907027842557E+00
   116  1.1500000000000E+00  2.3387262760164E-01  2.9568068492714E-01  1.2225843303952E+00
   117  1.1600000000000E+00  2.3629337881526E-01  2.7837741643073E-01  1.1505755442859E+00
   118  1.1700000000000E+00  2.3656122320983E-01  2.6161555990034E-01  1.0751621557467E+00
   119  1.1800000000000E+00  2.3479575148259E-01  2.4540509619015E-01  9.9685442373633E-01
   120  1.1900000000000E+00  2.3112700412149E-01  2.2975449566705E-01  9.1618269907834E-01
   121  1.2000000000000E+00  2.2569411626628E-01  2.1467070460668E-01  8.3369286847076E-01
   122  1.2100000000000E+00  2.1864394490333E-01  2.0015913722784E-01  7.4994174207340E-01
   123  1.2200000000000E+00  2.1012969442061E-01  1.8622367397518E-01  6.6549244514287E-01
   124  1.2300000000000E+00  2.0030955564595E-01  1.7286666658756E-01  5.8090987092888E-01
   125  1.2400000000000E+00  1.8934537226510E-01  1.6008895039946E-01  4.9675624737843E-01
   126  1.2500000000000E+00  1.7740134696256E-01  1.4788986421269E-01  4.1358686410781E-01
   127  1.2600000000000E+00  1.6464279777244E-01  1.3626727794878E-01  3.3194599867752E-01
   128  1.2700000000000E+00  1.5123497299324E-01  1.2521762814917E-01  2.5236307255204E-01
   129  1.2800000000000E+00  1.3734193060423E-01  1.1473596123114E-01  1.7534905721627E-01
   130  1.2900000000000E+00  1.2312548548515E-01  1.0481598423583E-01  1.0139314001530E-01
   131  1.3000000000000E+00  1.0874422490036E-01  9.5450122621952E-02  3.0959647452971E-02
   132  1.3100000000000E+00  9.4352589679241E-02  8.6629584465791E-02 -3.5514789009036E-02
   133  1.3200000000000E+00  8.0100015377924E-02  7.8344430229452E-02 -9.7623852856511E-02
   134  1.3300000000000E+00  6.6130124470550E-02  7.0583647056619E-02 -1.5499399002381E-01
   135  1.3400000000000E+00  5.2579957306597E-02  6.3335226349629E-02 -2.0728673992876E-01
   136  1.3500000000000E+00  3.9579226273436E-02  5.6586243178714E-02 -2.5420102001255E-01
   137  1.3600000000000E+00  2.7249574321558E-02  5.0322935874371E-02 -2.9547544775338E-01
   138  1.3700000000000E+00  1.5703815829750E-02  4.4530783961979E-02 -3.3089079771745E-01
   139  1.3800000000000E+00  5.0451346935022E-03  3.9194582413456E-02 -3.6027270445572E-01
   140  1.3900000000000E+00 -4.6337883787981E-03  3.4298510020592E-02 -3.8349473448238E-01
   141  1.4000000000000E+00 -1.3251750090105E-02  2.9826189538113E-02 -4.0048196220295E-01
   142  1.4100000000000E+00 -2.0740133490952E-02  2.5760737105738E-02 -4.1121519522610E-01
   143  1.4200000000000E+00 -2.7044187012815E-02  2.2084798338506E-02 -4.1573600389177E-01
   144  1.4300000000000E+00 -3.2124510865444E-02  1.8780568376295E-02 -4.1415271789481E-01
   145  1.4400000000000E+00 -3.5958789605709E-02  1.5829793108339E-02 -4.0664755944094E-01
   146  1.4500000000000E+00 -3.8543810873150E-02  1.3213748737531E-02 -3.9348508739004E-01
   147  1.4600000000000E+00 -3.9897811088887E-02  1.0913196824257E-02 -3.7502213016258E-01
   148  1.4700000000000E+00 -4.0063189326061E-02  8.9083119504931E-03 -3.5171938679841E-01
   149  1.4800000000000E+00 -3.9109633203862E-02  7.1785790045386E-03 -3.2415488961380E-01
   150  1.4900000000000E+00 -3.7137693086972E-02  5.7026575983264E-03 -2.9303948021878E-01
   151  1.5000000000000E+00 -3.4282757989110E-02  4.4582169347415E-03 -2.5923402496713E-01
   152  1.5100000000000E+00 -3.0718973514477E-02  3.4217665716890E-03 -2.2376572361777E-01
   153  1.5200000000000E+00 -2.6646082389735E-02  2.5695876158914E-03 -1.8775280903192E-01
   154  1.5300000000000E+00 -2.2278604686538E-02  1.8778380018427E-03 -1.5232761551851E-01
   155  1.5400000000000E+00 -1.7841814787098E-02  1.3225805741210E-03 -1.1861566966648E-01
   156  1.5500000000000E+00 -1.3519447456254E-02  8.8657429187180E-04 -8.7539189425633E-02
   157  1.5600000000000E+00 -9.4962043322057E-03  5.5417828121188E-04 -5.9972348661930E-02
   158  1.5700000000000E+00 -5.9573190627233E-03  3.1126808788664E-04 -3.6739567170007E-02
   159  1.5800000000000E+00 -3.0882719449492E-03  1.4537723265852E-04 -1.8617219058493E-02
   160  1.5900000000000E+00 -1.0582294145857E-03  4.5247219267819E-05 -6.2433520633741E-03
   161  1.6000000000000E+00 -1.0075706138743E-04  3.9154383650131E-06 -5.8106843957070E-04
   162  1.6100000000000E+00  1.9211836504109E-05 -7.0309672147709E-07  1.0961858971159E-04
   163  1.6200000000000E+00 -5.9849025093136E-06  2.2943244394394E-07 -3.4503633031530E-05
   164  1.63  0.  0.  0.
   165  1.64  0.  0.  0.
   166  1.65  0.  0.  0.
   167  1.66  0.  0.  0.
   168  1.67  0.  0.  0.
   169  1.68  0.  0.  0.
   170  1.69  0.  0.  0.
   171  1.70  0.  0.  0.
   172  1.71  0.  0.  0.
   173  1.72  0.  0.  0.
   174  1.73  0.  0.  0.
   175  1.74  0.  0.  0.
   176  1.75  0.  0.  0.
   177  1.76  0.  0.  0.
   178  1.77  0.  0.  0.
   179  1.78  0.  0.  0.
   180  1.79  0.  0.  0.
   181  1.80  0.  0.  0.
   182  1.81  0.  0.  0.
   183  1.82  0.  0.  0.
   184  1.83  0.  0.  0.
   185  1.84  0.  0.  0.
   186  1.85  0.  0.  0.
   187  1.86  0.  0.  0.
   188  1.87  0.  0.  0.
   189  1.88  0.  0.  0.
   190  1.89  0.  0.  0.
   191  1.90  0.  0.  0.
   192  1.91  0.  0.  0.
   193  1.92  0.  0.  0.
   194  1.93  0.  0.  0.
   195  1.94  0.  0.  0.
   196  1.95  0.  0.  0.
   197  1.96  0.  0.  0.
   198  1.97  0.  0.  0.
   199  1.98  0.  0.  0.
   200  1.99  0.  0.  0.
   201  2.00  0.  0.  0.
   202  2.01  0.  0.  0.
   203  2.02  0.  0.  0.
   204  2.03  0.  0.  0.
   205  2.04  0.  0.  0.
   206  2.05  0.  0.  0.
   207  2.06  0.  0.  0.
   208  2.07  0.  0.  0.
   209  2.08  0.  0.  0.
   210  2.09  0.  0.  0.
   211  2.10  0.  0.  0.
   212  2.11  0.  0.  0.
   213  2.12  0.  0.  0.
   214  2.13  0.  0.  0.
   215  2.14  0.  0.  0.
   216  2.15  0.  0.  0.
   217  2.16  0.  0.  0.
   218  2.17  0.  0.  0.
   219  2.18  0.  0.  0.
   220  2.19  0.  0.  0.
   221  2.20  0.  0.  0.
   222  2.21  0.  0.  0.
   223  2.22  0.  0.  0.
   224  2.23  0.  0.  0.
   225  2.24  0.  0.  0.
   226  2.25  0.  0.  0.
   227  2.26  0.  0.  0.
   228  2.27  0.  0.  0.
   229  2.28  0.  0.  0.
   230  2.29  0.  0.  0.
   231  2.30  0.  0.  0.
   232  2.31  0.  0.  0.
   233  2.32  0.  0.  0.
   234  2.33  0.  0.  0.
   235  2.34  0.  0.  0.
   236  2.35  0.  0.  0.
   237  2.36  0.  0.  0.
   238  2.37  0.  0.  0.
   239  2.38  0.  0.  0.
   240  2.39  0.  0.  0.
   241  2.40  0.  0.  0.
   242  2.41  0.  0.  0.
   243  2.42  0.  0.  0.
   244  2.43  0.  0.  0.
   245  2.44  0.  0.  0.
   246  2.45  0.  0.  0.
   247  2.46  0.  0.  0.
   248  2.47  0.  0.  0.
   249  2.48  0.  0.  0.
   250  2.49  0.  0.  0.
   251  2.50  0.  0.  0.
   252  2.51  0.  0.  0.
   253  2.52  0.  0.  0.
   254  2.53  0.  0.  0.
   255  2.54  0.  0.  0.
   256  2.55  0.  0.  0.
   257  2.56  0.  0.  0.
   258  2.57  0.  0.  0.
   259  2.58  0.  0.  0.
   260  2.59  0.  0.  0.
   261  2.60  0.  0.  0.
   262  2.61  0.  0.  0.
   263  2.62  0.  0.  0.
   264  2.63  0.  0.  0.
   265  2.64  0.  0.  0.
   266  2.65  0.  0.  0.
   267  2.66  0.  0.  0.
   268  2.67  0.  0.  0.
   269  2.68  0.  0.  0.
   270  2.69  0.  0.  0.
   271  2.70  0.  0.  0.
   272  2.71  0.  0.  0.
   273  2.72  0.  0.  0.
   274  2.73  0.  0.  0.
   275  2.74  0.  0.  0.
   276  2.75  0.  0.  0.
   277  2.76  0.  0.  0.
   278  2.77  0.  0.  0.
   279  2.78  0.  0.  0.
   280  2.79  0.  0.  0.
   281  2.80  0.  0.  0.
   282  2.81  0.  0.  0.
   283  2.82  0.  0.  0.
   284  2.83  0.  0.  0.
   285  2.84  0.  0.  0.
   286  2.85  0.  0.  0.
   287  2.86  0.  0.  0.
   288  2.87  0.  0.  0.
   289  2.88  0.  0.  0.
   290  2.89  0.  0.  0.
   291  2.90  0.  0.  0.
   292  2.91  0.  0.  0.
   293  2.92  0.  0.  0.
   294  2.93  0.  0.  0.
   295  2.94  0.  0.  0.
   296  2.95  0.  0.  0.
   297  2.96  0.  0.  0.
   298  2.97  0.  0.  0.
   299  2.98  0.  0.  0.
   300  2.99  0.  0.  0.
   301  3.00  0.  0.  0.
   302  3.01  0.  0.  0.
   303  3.02  0.  0.  0.
   304  3.03  0.  0.  0.
   305  3.04  0.  0.  0.
   306  3.05  0.  0.  0.
   307  3.06  0.  0.  0.
   308  3.07  0.  0.  0.
   309  3.08  0.  0.  0.
   310  3.09  0.  0.  0.
   311  3.10  0.  0.  0.
   312  3.11  0.  0.  0.
   313  3.12  0.  0.  0.
   314  3.13  0.  0.  0.
   315  3.14  0.  0.  0.
   316  3.15  0.  0.  0.
   317  3.16  0.  0.  0.
   318  3.17  0.  0.  0.
   319  3.18  0.  0.  0.
   320  3.19  0.  0.  0.
   321  3.20  0.  0.  0.
   322  3.21  0.  0.  0.
   323  3.22  0.  0.  0.
   324  3.23  0.  0.  0.
   325  3.24  0.  0.  0.
   326  3.25  0.  0.  0.
   327  3.26  0.  0.  0.
   328  3.27  0.  0.  0.
   329  3.28  0.  0.  0.
   330  3.29  0.  0.  0.
   331  3.30  0.  0.  0.
   332  3.31  0.  0.  0.
   333  3.32  0.  0.  0.
   334  3.33  0.  0.  0.
   335  3.34  0.  0.  0.
   336  3.35  0.  0.  0.
   337  3.36  0.  0.  0.
   338  3.37  0.  0.  0.
   339  3.38  0.  0.  0.
   340  3.39  0.  0.  0.
   341  3.40  0.  0.  0.
   342  3.41  0.  0.  0.
   343  3.42  0.  0.  0.
   344  3.43  0.  0.  0.
   345  3.44  0.  0.  0.
   346  3.45  0.  0.  0.
   347  3.46  0.  0.  0.
   348  3.47  0.  0.  0.
   349  3.48  0.  0.  0.
   350  3.49  0.  0.  0.
   351  3.50  0.  0.  0.
   352  3.51  0.  0.  0.
   353  3.52  0.  0.  0.
   354  3.53  0.  0.  0.
   355  3.54  0.  0.  0.
   356  3.55  0.  0.  0.
   357  3.56  0.  0.  0.
   358  3.57  0.  0.  0.
   359  3.58  0.  0.  0.
   360  3.59  0.  0.  0.
   361  3.60  0.  0.  0.
   362  3.61  0.  0.  0.
   363  3.62  0.  0.  0.
   364  3.63  0.  0.  0.
   365  3.64  0.  0.  0.
   366  3.65  0.  0.  0.
   367  3.66  0.  0.  0.
   368  3.67  0.  0.  0.
   369  3.68  0.  0.  0.
   370  3.69  0.  0.  0.
   371  3.70  0.  0.  0.
   372  3.71  0.  0.  0.
   373  3.72  0.  0.  0.
   374  3.73  0.  0.  0.
   375  3.74  0.  0.  0.
   376  3.75  0.  0.  0.
   377  3.76  0.  0.  0.
   378  3.77  0.  0.  0.
   379  3.78  0.  0.  0.
   380  3.79  0.  0.  0.
   381  3.80  0.  0.  0.
   382  3.81  0.  0.  0.
   383  3.82  0.  0.  0.
   384  3.83  0.  0.  0.
   385  3.84  0.  0.  0.
   386  3.85  0.  0.  0.
   387  3.86  0.  0.  0.
   388  3.87  0.  0.  0.
   389  3.88  0.  0.  0.
   390  3.89  0.  0.  0.
   391  3.90  0.  0.  0.
   392  3.91  0.  0.  0.
   393  3.92  0.  0.  0.
   394  3.93  0.  0.  0.
   395  3.94  0.  0.  0.
   396  3.95  0.  0.  0.
   397  3.96  0.  0.  0.
   398  3.97  0.  0.  0.
   399  3.98  0.  0.  0.
   400  3.99  0.  0.  0.
   401  4.00  0.  0.  0.
   402  4.01  0.  0.  0.
   403  4.02  0.  0.  0.
   404  4.03  0.  0.  0.
   405  4.04  0.  0.  0.
   406  4.05  0.  0.  0.
   407  4.06  0.  0.  0.
   408  4.07  0.  0.  0.
   409  4.08  0.  0.  0.
   410  4.09  0.  0.  0.
   411  4.10  0.  0.  0.
   412  4.11  0.  0.  0.
   413  4.12  0.  0.  0.
   414  4.13  0.  0.  0.
   415  4.14  0.  0.  0.
   416  4.15  0.  0.  0.
   417  4.16  0.  0.  0.
   418  4.17  0.  0.  0.
   419  4.18  0.  0.  0.
   420  4.19  0.  0.  0.
   421  4.20  0.  0.  0.
   422  4.21  0.  0.  0.
   423  4.22  0.  0.  0.
   424  4.23  0.  0.  0.
   425  4.24  0.  0.  0.
   426  4.25  0.  0.  0.
   427  4.26  0.  0.  0.
   428  4.27  0.  0.  0.
   429  4.28  0.  0.  0.
   430  4.29  0.  0.  0.
   431  4.30  0.  0.  0.
   432  4.31  0.  0.  0.
   433  4.32  0.  0.  0.
   434  4.33  0.  0.  0.
   435  4.34  0.  0.  0.
   436  4.35  0.  0.  0.
   437  4.36  0.  0.  0.
   438  4.37  0.  0.  0.
   439  4.38  0.  0.  0.
   440  4.39  0.  0.  0.
   441  4.40  0.  0.  0.
   442  4.41  0.  0.  0.
   443  4.42  0.  0.  0.
   444  4.43  0.  0.  0.
   445  4.44  0.  0.  0.
   446  4.45  0.  0.  0.
   447  4.46  0.  0.  0.
   448  4.47  0.  0.  0.
   449  4.48  0.  0.  0.
   450  4.49  0.  0.  0.
   451  4.50  0.  0.  0.
   452  4.51  0.  0.  0.
   453  4.52  0.  0.  0.
   454  4.53  0.  0.  0.
   455  4.54  0.  0.  0.
   456  4.55  0.  0.  0.
   457  4.56  0.  0.  0.
   458  4.57  0.  0.  0.
   459  4.58  0.  0.  0.
   460  4.59  0.  0.  0.
   461  4.60  0.  0.  0.
   462  4.61  0.  0.  0.
   463  4.62  0.  0.  0.
   464  4.63  0.  0.  0.
   465  4.64  0.  0.  0.
   466  4.65  0.  0.  0.
   467  4.66  0.  0.  0.
   468  4.67  0.  0.  0.
   469  4.68  0.  0.  0.
   470  4.69  0.  0.  0.
   471  4.70  0.  0.  0.
   472  4.71  0.  0.  0.
   473  4.72  0.  0.  0.
   474  4.73  0.  0.  0.
   475  4.74  0.  0.  0.
   476  4.75  0.  0.  0.
   477  4.76  0.  0.  0.
   478  4.77  0.  0.  0.
   479  4.78  0.  0.  0.
   480  4.79  0.  0.  0.
   481  4.80  0.  0.  0.
   482  4.81  0.  0.  0.
   483  4.82  0.  0.  0.
   484  4.83  0.  0.  0.
   485  4.84  0.  0.  0.
   486  4.85  0.  0.  0.
   487  4.86  0.  0.  0.
   488  4.87  0.  0.  0.
   489  4.88  0.  0.  0.
   490  4.89  0.  0.  0.
   491  4.90  0.  0.  0.
   492  4.91  0.  0.  0.
   493  4.92  0.  0.  0.
   494  4.93  0.  0.  0.
   495  4.94  0.  0.  0.
   496  4.95  0.  0.  0.
   497  4.96  0.  0.  0.
   498  4.97  0.  0.  0.
   499  4.98  0.  0.  0.
   500  4.99  0.  0.  0.
   501  5.00  0.  0.  0.
   502  5.01  0.  0.  0.
   503  5.02  0.  0.  0.
   504  5.03  0.  0.  0.
   505  5.04  0.  0.  0.
   506  5.05  0.  0.  0.
   507  5.06  0.  0.  0.
   508  5.07  0.  0.  0.
   509  5.08  0.  0.  0.
   510  5.09  0.  0.  0.
   511  5.10  0.  0.  0.
   512  5.11  0.  0.  0.
   513  5.12  0.  0.  0.
   514  5.13  0.  0.  0.
   515  5.14  0.  0.  0.
   516  5.15  0.  0.  0.
   517  5.16  0.  0.  0.
   518  5.17  0.  0.  0.
   519  5.18  0.  0.  0.
   520  5.19  0.  0.  0.
   521  5.20  0.  0.  0.
   522  5.21  0.  0.  0.
   523  5.22  0.  0.  0.
   524  5.23  0.  0.  0.
   525  5.24  0.  0.  0.
   526  5.25  0.  0.  0.
   527  5.26  0.  0.  0.
   528  5.27  0.  0.  0.
   529  5.28  0.  0.  0.
   530  5.29  0.  0.  0.
   531  5.30  0.  0.  0.
   532  5.31  0.  0.  0.
   533  5.32  0.  0.  0.
   534  5.33  0.  0.  0.
   535  5.34  0.  0.  0.
   536  5.35  0.  0.  0.
   537  5.36  0.  0.  0.
   538  5.37  0.  0.  0.
   539  5.38  0.  0.  0.
   540  5.39  0.  0.  0.
   541  5.40  0.  0.  0.
   542  5.41  0.  0.  0.
   543  5.42  0.  0.  0.
   544  5.43  0.  0.  0.
   545  5.44  0.  0.  0.
   546  5.45  0.  0.  0.
   547  5.46  0.  0.  0.
   548  5.47  0.  0.  0.
   549  5.48  0.  0.  0.
   550  5.49  0.  0.  0.
   551  5.50  0.  0.  0.
   552  5.51  0.  0.  0.
   553  5.52  0.  0.  0.
   554  5.53  0.  0.  0.
   555  5.54  0.  0.  0.
   556  5.55  0.  0.  0.
   557  5.56  0.  0.  0.
   558  5.57  0.  0.  0.
   559  5.58  0.  0.  0.
   560  5.59  0.  0.  0.
   561  5.60  0.  0.  0.
   562  5.61  0.  0.  0.
   563  5.62  0.  0.  0.
   564  5.63  0.  0.  0.
   565  5.64  0.  0.  0.
   566  5.65  0.  0.  0.
   567  5.66  0.  0.  0.
   568  5.67  0.  0.  0.
   569  5.68  0.  0.  0.
   570  5.69  0.  0.  0.
   571  5.70  0.  0.  0.
   572  5.71  0.  0.  0.
   573  5.72  0.  0.  0.
   574  5.73  0.  0.  0.
   575  5.74  0.  0.  0.
   576  5.75  0.  0.  0.
   577  5.76  0.  0.  0.
   578  5.77  0.  0.  0.
   579  5.78  0.  0.  0.
   580  5.79  0.  0.  0.
   581  5.80  0.  0.  0.
   582  5.81  0.  0.  0.
   583  5.82  0.  0.  0.
   584  5.83  0.  0.  0.
   585  5.84  0.  0.  0.
   586  5.85  0.  0.  0.
   587  5.86  0.  0.  0.
   588  5.87  0.  0.  0.
   589  5.88  0.  0.  0.
   590  5.89  0.  0.  0.
   591  5.90  0.  0.  0.
   592  5.91  0.  0.  0.
   593  5.92  0.  0.  0.
   594  5.93  0.  0.  0.
   595  5.94  0.  0.  0.
   596  5.95  0.  0.  0.
   597  5.96  0.  0.  0.
   598  5.97  0.  0.  0.
   599  5.98  0.  0.  0.
   600  5.99  0.  0.  0.
   1                        -4.2380373993132E+00  9.7591394316685E-01 -4.2495422091960E-02
     1  0.0000000000000E+00  3.2710931185953E-10 -2.1030025221247E-09 -7.8084352907182E-09
     2  1.0000000000000E-02  1.0889666802480E-03  2.1224988579389E-03 -3.5183030003159E-04
     3  2.0000000000000E-02  4.3520960389125E-03  8.4787234226585E-03 -1.3985535707555E-03
     4  3.0000000000000E-02  9.7780954545018E-03  1.9034863008379E-02 -3.1140793559926E-03
     5  4.0000000000000E-02  1.7348208454358E-02  3.3734585616934E-02 -5.4556270055577E-03
     6  5.0000000000000E-02  2.7036310911343E-02  5.2499071306208E-02 -8.3647646201843E-03
     7  6.0000000000000E-02  3.8809044433346E-02  7.5227068076232E-02 -1.1768831480776E-02
     8  7.0000000000000E-02  5.2625985683618E-02  1.0179497913609E-01 -1.5582712676498E-02
     9  8.0000000000000E-02  6.8439850042814E-02  1.3205699251775E-01 -1.9710926837778E-02
    10  9.0000000000000E-02  8.6196727720902E-02  1.6584526579492E-01 -2.4049980893889E-02
    11  1.0000000000000E-01  1.0583635015301E-01  2.0297018009444E-01 -2.8490939750501E-02
    12  1.1000000000000E-01  1.2729238427191E-01  2.4322067860590E-01 -3.2922153851509E-02
    13  1.2000000000000E-01  1.5049275204433E-01  2.8636470536684E-01 -3.7232083855196E-02
    14  1.3000000000000E-01  1.7535997249170E-01  3.3214976019777E-01 -4.1312159197437E-02
    15  1.4000000000000E-01  2.0181152328943E-01  3.8030358526787E-01 -4.5059606189596E-02
    16  1.5000000000000E-01  2.2976021895445E-01  4.3053499788269E-01 -4.8380181531934E-02
    17  1.6000000000000E-01  2.5911460258870E-01  4.8253488270687E-01 -5.1190748713360E-02
    18  1.7000000000000E-01  2.8977934814540E-01  5.3597735478358E-01 -5.3421637688511E-02
    19  1.8000000000000E-01  3.2165567022582E-01  5.9052110241870E-01 -5.5018732414645E-02
    20  1.9000000000000E-01  3.5464173849323E-01  6.4581091629915E-01 -5.5945236212511E-02
    21  2.0000000000000E-01  3.8863309390699E-01  7.0147940816047E-01 -5.6183071381249E-02
    22  2.1000000000000E-01  4.2352306412867E-01  7.5714891896789E-01 -5.5733876914605E-02
    23  2.2000000000000E-01  4.5920317563130E-01  8.1243361299008E-01 -5.4619576390246E-02
    24  2.3000000000000E-01  4.9556356024728E-01  8.6694175040089E-01 -5.2882496963208E-02
    25  2.4000000000000E-01  5.3249335411584E-01  9.2027812721551E-01 -5.0585029714769E-02
    26  2.5000000000000E-01  5.6988108723261E-01  9.7204666753493E-01 -4.7808831195308E-02
    27  2.6000000000000E-01  6.0761506205633E-01  1.0218531493187E+00 -4.4653575660650E-02
    28  2.7000000000000E-01  6.4558371988605E-01  1.0693080413108E+00 -4.1235277036473E-02
    29  2.8000000000000E-01  6.8367599398092E-01  1.1140294253906E+00 -3.7684208860964E-02
    30  2.9000000000000E-01  7.2178164864947E-01  1.1556459755801E+00 -3.4142459158280E-02
    31  3.0000000000000E-01  7.5979160377983E-01  1.1937999622954E+00 -3.0761165207621E-02
    32  3.1000000000000E-01  7.9759824451375E-01  1.2281502482309E+00 -2.7697480324833E-02
    33  3.2000000000000E-01  8.3509571598000E-01  1.2583752405861E+00 -2.5111330916650E-02
    34  3.3000000000000E-01  8.7218020319358E-01  1.2841757632216E+00 -2.3162027070068E-02
    35  3.4000000000000E-01  9.0875019639334E-01  1.3052778118078E+00 -2.2004793693459E-02
    36  3.5000000000000E-01  9.4470674222833E-01  1.3214351551322E+00 -2.1787291648007E-02
    37  3.6000000000000E-01  9.7995368131215E-01  1.3324317464719E+00 -2.2646199340721E-02
    38  3.7000000000000E-01  1.0143978727419E+00  1.3380839103289E+00 -2.4703924864202E-02
    39  3.8000000000000E-01  1.0479494062246E+00  1.3382422718390E+00 -2.8065516962406E-02
    40  3.9000000000000E-01  1.0805218024695E+00  1.3327933988044E+00 -3.2815839904057E-02