Ra    ONCVPSP-4.0.1  r_core=   1.60343   1.60343   1.75396
88.0000     28.0000      220307    zatom,zion,pspd
8      11   2     4   600     0    pspcod,pspxc,lmax,lloc,mmax,r2well
5.99000000  5.00000000  0.00000000    rchrg fchrg qchrg
3     2     2     0     0    nproj
1     1           extension_switch
0                         9.3016695354957E+00 -3.8911291476401E+00  5.5027727530875E-01
1  0.0000000000000E+00 -1.9171839671372E-09 -5.4351967371247E-11 -6.6879748406024E-09
2  1.0000000000000E-02  1.1821056208938E-01  3.3279482833593E-02  4.6717299949064E-02
3  2.0000000000000E-02  2.3581830128113E-01  6.6543572150831E-02  9.2811323551948E-02
4  3.0000000000000E-02  3.5222450834006E-01  9.9776856524465E-02  1.3766648715646E-01
5  4.0000000000000E-02  4.6683866220032E-01  1.3296388830334E-01  1.8068248336446E-01
6  5.0000000000000E-02  5.7908242665995E-01  1.6608916450952E-01  2.2128164807088E-01
7  6.0000000000000E-02  6.8839353159444E-01  1.9913710658625E-01  2.5891600705689E-01
8  7.0000000000000E-02  7.9422950248585E-01  2.3209203867921E-01  2.9307390333284E-01
9  8.0000000000000E-02  8.9607120398063E-01  2.6493816418797E-01  3.2328611311461E-01
10  9.0000000000000E-02  9.9342616553056E-01  2.9765954039029E-01  3.4913136645977E-01
11  1.0000000000000E-01  1.0858316599002E+00  3.3024005101737E-01  3.7024119804671E-01
12  1.1000000000000E-01  1.1728575083988E+00  3.6266337674197E-01  3.8630406418925E-01
13  1.2000000000000E-01  1.2541085900705E+00  3.9491296363173E-01  3.9706867375923E-01
14  1.3000000000000E-01  1.3292270357000E+00  4.2697198971419E-01  4.0234649304263E-01
15  1.4000000000000E-01  1.3978940913082E+00  4.5882332989703E-01  4.0201339747409E-01
16  1.5000000000000E-01  1.4598316397719E+00  4.9044951958380E-01  3.9601045645412E-01
17  1.6000000000000E-01  1.5148033732340E+00  5.2183271741980E-01  3.8434385083759E-01
18  1.7000000000000E-01  1.5626156130279E+00  5.5295466769337E-01  3.6708393596072E-01
19  1.8000000000000E-01  1.6031177778595E+00  5.8379666300100E-01  3.4436347602571E-01
20  1.9000000000000E-01  1.6362025049113E+00  6.1433950786020E-01  3.1637508807526E-01
21  2.0000000000000E-01  1.6618054323061E+00  6.4456348401820E-01  2.8336794545602E-01
22  2.1000000000000E-01  1.6799046549402E+00  6.7444831825722E-01  2.4564380140089E-01
23  2.2000000000000E-01  1.6905198690126E+00  7.0397315353552E-01  2.0355240298415E-01
24  2.3000000000000E-01  1.6937112236113E+00  7.3311652432699E-01  1.5748637407071E-01
25  2.4000000000000E-01  1.6895779004082E+00  7.6185633703012E-01  1.0787565284890E-01
26  2.5000000000000E-01  1.6782564448525E+00  7.9016985630789E-01  5.5181575023129E-02
27  2.6000000000000E-01  1.6599188742013E+00  8.1803369819450E-01 -1.0930234780835E-04
28  2.7000000000000E-01  1.6347705892615E+00  8.4542383076190E-01 -5.7491539093601E-02
29  2.8000000000000E-01  1.6030481178439E+00  8.7231558307932E-01 -1.1644721432930E-01
30  2.9000000000000E-01  1.5650167186281E+00  8.9868366312334E-01 -1.7645229606733E-01
31  3.0000000000000E-01  1.5209678744129E+00  9.2450218520489E-01 -2.3698288368117E-01
32  3.1000000000000E-01  1.4712167035968E+00  9.4974470737448E-01 -2.9752123297536E-01
33  3.2000000000000E-01  1.4160993181984E+00  9.7438427914933E-01 -3.5756147916845E-01
34  3.3000000000000E-01  1.3559701558244E+00  9.9839349977774E-01 -4.1661497998402E-01
35  3.4000000000000E-01  1.2911993117383E+00  1.0217445871186E+00 -4.7421520912008E-01
36  3.5000000000000E-01  1.2221698956134E+00  1.0444094570703E+00 -5.2992213948348E-01
37  3.6000000000000E-01  1.1492754357096E+00  1.0663598133341E+00 -5.8332606555217E-01
38  3.7000000000000E-01  1.0729173511249E+00  1.0875672471483E+00 -6.3405082489238E-01
39  3.8000000000000E-01  9.9350251049514E-01  1.1080033464776E+00 -6.8175638999443E-01
40  3.9000000000000E-01  9.1144089308475E-01  1.1276398139972E+00 -7.2614081302064E-01
41  4.0000000000000E-01  8.2714336568081E-01  1.1464485930683E+00 -7.6694151755980E-01
42  4.1000000000000E-01  7.4101958611334E-01  1.1644020007685E+00 -8.0393594286742E-01
43  4.2000000000000E-01  6.5347604163113E-01  1.1814728669181E+00 -8.3694155712016E-01
44  4.3000000000000E-01  5.6491422780058E-01  1.1976346779301E+00 -8.6581526676508E-01
45  4.4000000000000E-01  4.7572897111612E-01  1.2128617242176E+00 -8.9045225889311E-01
46  4.5000000000000E-01  3.8630689615370E-01  1.2271292498092E+00 -9.1078432255476E-01
47  4.6000000000000E-01  2.9702503589228E-01  1.2404136027593E+00 -9.2677770294932E-01
48  4.7000000000000E-01  2.0824958182452E-01  1.2526923848988E+00 -9.3843054925382E-01
49  4.8000000000000E-01  1.2033476868101E-01  1.2639445994415E+00 -9.4577002250805E-01
50  4.9000000000000E-01  3.3621887047911E-02  1.2741507949608E+00 -9.4884913426430E-01
51  5.0000000000000E-01 -5.1561584130372E-02  1.2832932042631E+00 -9.4774338965019E-01
52  5.1000000000000E-01 -1.3490273418264E-01  1.2913558767228E+00 -9.4254731000923E-01
53  5.2000000000000E-01 -2.1610387622726E-01  1.2983248026973E+00 -9.3337091039623E-01
54  5.3000000000000E-01 -2.9488311177094E-01  1.3041880287140E+00 -9.2033620591266E-01
55  5.4000000000000E-01 -3.7097481475482E-01  1.3089357622181E+00 -9.0357381822271E-01
56  5.5000000000000E-01 -4.4413004531077E-01  1.3125604647734E+00 -8.8321974966270E-01
57  5.6000000000000E-01 -5.1411690313272E-01  1.3150569327388E+00 -8.5941238723276E-01
58  5.7000000000000E-01 -5.8072082977149E-01  1.3164223645760E+00 -8.3228979254146E-01
59  5.8000000000000E-01 -6.4374486835293E-01  1.3166564140957E+00 -8.0198732660645E-01
60  5.9000000000000E-01 -7.0300988822268E-01  1.3157612291074E+00 -7.6863565042732E-01
61  6.0000000000000E-01 -7.5835478086709E-01  1.3137414751015E+00 -7.3235913360005E-01
62  6.1000000000000E-01 -8.0963663218193E-01  1.3106043437610E+00 -6.9327469411005E-01
63  6.2000000000000E-01 -8.5673087479098E-01  1.3063595462726E+00 -6.5149108298464E-01
64  6.3000000000000E-01 -8.9953142269460E-01  1.3010192915732E+00 -6.0710861790082E-01
65  6.4000000000000E-01 -9.3795078908287E-01  1.2945982498369E+00 -5.6021936028276E-01
66  6.5000000000000E-01 -9.7192018672343E-01  1.2871135016656E+00 -5.1090772109650E-01
67  6.6000000000000E-01 -1.0013896089566E+00  1.2785844735997E+00 -4.5925147158922E-01
68  6.7000000000000E-01 -1.0263278880391E+00  1.2690328607051E+00 -4.0532312682163E-01
69  6.8000000000000E-01 -1.0467227264007E+00  1.2584825371256E+00 -3.4919166213345E-01
70  6.9000000000000E-01 -1.0625806953421E+00  1.2469594555995E+00 -2.9092451580514E-01
71  7.0000000000000E-01 -1.0739271948363E+00  1.2344915370443E+00 -2.3058982526344E-01
72  7.1000000000000E-01 -1.0808063674176E+00  1.2211085513916E+00 -1.6825883931341E-01
73  7.2000000000000E-01 -1.0832809586677E+00  1.2068419909210E+00 -1.0400844514813E-01
74  7.3000000000000E-01 -1.0814321165530E+00  1.1917249373866E+00 -3.7923746365160E-02
75  7.4000000000000E-01 -1.0753591218406E+00  1.1757919242578E+00  2.9899373075782E-02
76  7.5000000000000E-01 -1.0651790420182E+00  1.1590787954021E+00  9.9351764051392E-02
77  7.6000000000000E-01 -1.0510263015723E+00  1.1416225615284E+00  1.7030867052089E-01
78  7.7000000000000E-01 -1.0330521621292E+00  1.1234612556779E+00  2.4262759227309E-01
79  7.8000000000000E-01 -1.0114241068260E+00  1.1046337890045E+00  3.1614641002821E-01
80  7.9000000000000E-01 -9.8632512433637E-01  1.0851798080231E+00  3.9068182604562E-01
81  8.0000000000000E-01 -9.5795288921090E-01  1.0651395544242E+00  4.6602816767794E-01
82  8.1000000000000E-01 -9.2651883658596E-01  1.0445537284633E+00  5.4195659469511E-01
83  8.2000000000000E-01 -8.9224713083328E-01  1.0234633568302E+00  6.1821474380807E-01
84  8.3000000000000E-01 -8.5537352934661E-01  1.0019096657886E+00  6.9452683578169E-01
85  8.4000000000000E-01 -8.1614414435321E-01  9.7993396025685E-01  7.7059426199289E-01
86  8.5000000000000E-01 -7.7481410737138E-01  9.5757750937585E-01  8.4609665840334E-01
87  8.6000000000000E-01 -7.3164614267007E-01  9.3488143897700E-01  9.2069346586178E-01
88  8.7000000000000E-01 -6.8690905779598E-01  9.1188663123750E-01  9.9402596656698E-01
89  8.8000000000000E-01 -6.4087616088090E-01  8.8863363167825E-01  1.0657197775836E+00
90  8.9000000000000E-01 -5.9382361599353E-01  8.6516256353567E-01  1.1353877736734E+00
91  9.0000000000000E-01 -5.4602874922824E-01  8.4151304941894E-01  1.2026334035261E+00
92  9.1000000000000E-01 -4.9776831949443E-01  8.1772414005224E-01  1.2670543559044E+00
93  9.2000000000000E-01 -4.4931676906297E-01  7.9383424979892E-01  1.3282465253831E+00
94  9.3000000000000E-01 -4.0094446981059E-01  7.6988109857367E-01  1.3858082213910E+00
95  9.4000000000000E-01 -3.5291598176504E-01  7.4590165966929E-01  1.4393445592577E+00
96  9.5000000000000E-01 -3.0548834097270E-01  7.2193211296041E-01  1.4884719680170E+00
97  9.6000000000000E-01 -2.5890939387448E-01  6.9800780289532E-01  1.5328227469017E+00
98  9.7000000000000E-01 -2.1341619528088E-01  6.7416320065272E-01  1.5720496008109E+00
99  9.8000000000000E-01 -1.6923348667179E-01  6.5043186982028E-01  1.6058300846090E+00
100  9.9000000000000E-01 -1.2657227092371E-01  6.2684643494864E-01  1.6338708868842E+00
101  1.0000000000000E+00 -8.5628498679068E-02  6.0343855234634E-01  1.6559118857975E+00
102  1.0100000000000E+00 -4.6581880443290E-02  5.8023888250828E-01  1.6717299127996E+00
103  1.0200000000000E+00 -9.5948371277988E-03  5.5727706361157E-01  1.6811421642847E+00
104  1.0300000000000E+00  2.5188399818594E-02  5.3458168556767E-01  1.6840092065628E+00
105  1.0400000000000E+00  5.7642529316418E-02  5.1218026418586E-01  1.6802375258080E+00
106  1.0500000000000E+00  8.7661755159073E-02  4.9009921508093E-01  1.6697815817604E+00
107  1.0600000000000E+00  1.1516018873220E-01  4.6836382704326E-01  1.6526453317702E+00
108  1.0700000000000E+00  1.4007207673568E-01  4.4699823468292E-01  1.6288832001930E+00
109  1.0800000000000E+00  1.6235185292077E-01  4.2602539025681E-01  1.5986004769597E+00
110  1.0900000000000E+00  1.8197401511097E-01  4.0546703468851E-01  1.5619531382334E+00
111  1.1000000000000E+00  1.9893283102239E-01  3.8534366789131E-01  1.5191470912629E+00
112  1.1100000000000E+00  2.1324187859207E-01  3.6567451860429E-01  1.4704368546382E+00
113  1.1200000000000E+00  2.2493342863584E-01  3.4647751404647E-01  1.4161236940447E+00
114  1.1300000000000E+00  2.3405767963357E-01  3.2776924978283E-01  1.3565532420426E+00
115  1.1400000000000E+00  2.4068185626547E-01  3.0956496027686E-01  1.2921126382988E+00
116  1.1500000000000E+00  2.4488918493971E-01  2.9187849067413E-01  1.2232272338139E+00
117  1.1600000000000E+00  2.4677776094865E-01  2.7472227041927E-01  1.1503569089581E+00
118  1.1700000000000E+00  2.4645932301922E-01  2.5810728935219E-01  1.0739920603405E+00
119  1.1800000000000E+00  2.4405795187405E-01  2.4204307695764E-01  9.9464931563699E-01
120  1.1900000000000E+00  2.3970870995857E-01  2.2653768545303E-01  9.1286703833024E-01
121  1.2000000000000E+00  2.3355623970182E-01  2.1159767739264E-01  8.2920068580472E-01
122  1.2100000000000E+00  2.2575333755922E-01  1.9722811844078E-01  7.4421808435178E-01
123  1.2200000000000E+00  2.1645952061098E-01  1.8343257592155E-01  6.5849468326298E-01
124  1.2300000000000E+00  2.0583960167035E-01  1.7021312368845E-01  5.7260884736560E-01
125  1.2400000000000E+00  1.9406228769065E-01  1.5757035377416E-01  4.8713724305544E-01
126  1.2500000000000E+00  1.8129881474698E-01  1.4550339517803E-01  4.0265036710450E-01
127  1.2600000000000E+00  1.6772163103045E-01  1.3400994002857E-01  3.1970826034678E-01
128  1.2700000000000E+00  1.5350313715440E-01  1.2308627722185E-01  2.3885643986878E-01
129  1.2800000000000E+00  1.3881449062290E-01  1.1272733348296E-01  1.6062207351207E-01
130  1.2900000000000E+00  1.2382447862044E-01  1.0292672163124E-01  8.5510409609912E-02
131  1.3000000000000E+00  1.0869846036223E-01  9.3676795652277E-02  1.4001462987875E-02
132  1.3100000000000E+00  9.3597377108608E-02  8.4968711989582E-02 -5.3453054589732E-02
133  1.3200000000000E+00  7.8676824675652E-02  7.6792496273748E-02 -1.1643258481287E-01
134  1.3300000000000E+00  6.4086179888705E-02  6.9137114505691E-02 -1.7455039333752E-01
135  1.3400000000000E+00  4.9967768950580E-02  6.1990547506713E-02 -2.2745611410764E-01
136  1.3500000000000E+00  3.6456062214919E-02  5.5339867245159E-02 -2.7483823566023E-01
137  1.3600000000000E+00  2.3676876383232E-02  4.9171313449326E-02 -3.1642661206230E-01
138  1.3700000000000E+00  1.1746561759437E-02  4.3470368723070E-02 -3.5199509527019E-01
139  1.3800000000000E+00  7.7114889329694E-04  3.8221830194314E-02 -3.8136439951757E-01
140  1.3900000000000E+00 -9.1545741616538E-03  3.3409875554080E-02 -4.0440532134952E-01
141  1.4000000000000E+00 -1.7948085674063E-02  2.9018121183851E-02 -4.2104245117233E-01
142  1.4100000000000E+00 -2.5540289504227E-02  2.5029669926926E-02 -4.3125852334184E-01
143  1.4200000000000E+00 -3.1876846563359E-02  2.1427145935524E-02 -4.3509956180708E-01
144  1.4300000000000E+00 -3.6919717265793E-02  1.8192713923076E-02 -4.3268098692029E-01
145  1.4400000000000E+00 -4.0648955479076E-02  1.5308080071801E-02 -4.2419485610958E-01
146  1.4500000000000E+00 -4.3064795800578E-02  1.2754471790544E-02 -4.0991841658026E-01
147  1.4600000000000E+00 -4.4190076905570E-02  1.0512593488793E-02 -3.9022415193840E-01
148  1.4700000000000E+00 -4.4073044209341E-02  8.5625555298991E-03 -3.6559150656458E-01
149  1.4800000000000E+00 -4.2790577939563E-02  6.8837733815586E-03 -3.3662048624987E-01
150  1.4900000000000E+00 -4.0451884734406E-02  5.4548344947696E-03 -3.0404729092249E-01
151  1.5000000000000E+00 -3.7202603937502E-02  4.2533362386718E-03 -2.6876170061861E-01
152  1.5100000000000E+00 -3.3228838818192E-02  3.2557207708490E-03 -2.3182348744562E-01
153  1.5200000000000E+00 -2.8743156179647E-02  2.4382159279314E-03 -1.9438487862708E-01
154  1.5300000000000E+00 -2.3972590246839E-02  1.7769764357377E-03 -1.5760999502925E-01
155  1.5400000000000E+00 -1.9154259366842E-02  1.2481215988915E-03 -1.2265286124519E-01
156  1.5500000000000E+00 -1.4482509973042E-02  8.3440171874754E-04 -9.0462448623442E-02
157  1.5600000000000E+00 -1.0151790120166E-02  5.2020230422643E-04 -6.1936377718239E-02
158  1.5700000000000E+00 -6.3561204606569E-03  2.9146437259909E-04 -3.7918890486562E-02
159  1.5800000000000E+00 -3.2888047996928E-03  1.3582252385639E-04 -1.9202592149271E-02
160  1.5900000000000E+00 -1.1249139885795E-03  4.2191926235712E-05 -6.4355479988769E-03
161  1.6000000000000E+00 -1.0687021000446E-04  3.6437881622749E-06 -5.9847094081330E-04
162  1.6100000000000E+00  2.0377484505173E-05 -6.5408530149606E-07  1.1289804017147E-04
163  1.6200000000000E+00 -6.3525654905407E-06  2.1356895771665E-07 -3.5545760603209E-05
164  1.63  0. -0.  0.
165  1.64 -0. -0. -0.
166  1.65  0.  0.  0.
167  1.66  0.  0.  0.
168  1.67  0.  0.  0.
169  1.68  0.  0.  0.
170  1.69  0.  0.  0.
171  1.70  0.  0.  0.
172  1.71  0.  0.  0.
173  1.72  0.  0.  0.
174  1.73  0.  0.  0.
175  1.74  0.  0.  0.
176  1.75  0.  0.  0.
177  1.76  0.  0.  0.
178  1.77  0.  0.  0.
179  1.78  0.  0.  0.
180  1.79  0.  0.  0.
181  1.80  0.  0.  0.
182  1.81  0.  0.  0.
183  1.82  0.  0.  0.
184  1.83  0.  0.  0.
185  1.84  0.  0.  0.
186  1.85  0.  0.  0.
187  1.86  0.  0.  0.
188  1.87  0.  0.  0.
189  1.88  0.  0.  0.
190  1.89  0.  0.  0.
191  1.90  0.  0.  0.
192  1.91  0.  0.  0.
193  1.92  0.  0.  0.
194  1.93  0.  0.  0.
195  1.94  0.  0.  0.
196  1.95  0.  0.  0.
197  1.96  0.  0.  0.
198  1.97  0.  0.  0.
199  1.98  0.  0.  0.
200  1.99  0.  0.  0.
201  2.00  0.  0.  0.
202  2.01  0.  0.  0.
203  2.02  0.  0.  0.
204  2.03  0.  0.  0.
205  2.04  0.  0.  0.
206  2.05  0.  0.  0.
207  2.06  0.  0.  0.
208  2.07  0.  0.  0.
209  2.08  0.  0.  0.
210  2.09  0.  0.  0.
211  2.10  0.  0.  0.
212  2.11  0.  0.  0.
213  2.12  0.  0.  0.
214  2.13  0.  0.  0.
215  2.14  0.  0.  0.
216  2.15  0.  0.  0.
217  2.16  0.  0.  0.
218  2.17  0.  0.  0.
219  2.18  0.  0.  0.
220  2.19  0.  0.  0.
221  2.20  0.  0.  0.
222  2.21  0.  0.  0.
223  2.22  0.  0.  0.
224  2.23  0.  0.  0.
225  2.24  0.  0.  0.
226  2.25  0.  0.  0.
227  2.26  0.  0.  0.
228  2.27  0.  0.  0.
229  2.28  0.  0.  0.
230  2.29  0.  0.  0.
231  2.30  0.  0.  0.
232  2.31  0.  0.  0.
233  2.32  0.  0.  0.
234  2.33  0.  0.  0.
235  2.34  0.  0.  0.
236  2.35  0.  0.  0.
237  2.36  0.  0.  0.
238  2.37  0.  0.  0.
239  2.38  0.  0.  0.
240  2.39  0.  0.  0.
241  2.40  0.  0.  0.
242  2.41  0.  0.  0.
243  2.42  0.  0.  0.
244  2.43  0.  0.  0.
245  2.44  0.  0.  0.
246  2.45  0.  0.  0.
247  2.46  0.  0.  0.
248  2.47  0.  0.  0.
249  2.48  0.  0.  0.
250  2.49  0.  0.  0.
251  2.50  0.  0.  0.
252  2.51  0.  0.  0.
253  2.52  0.  0.  0.
254  2.53  0.  0.  0.
255  2.54  0.  0.  0.
256  2.55  0.  0.  0.
257  2.56  0.  0.  0.
258  2.57  0.  0.  0.
259  2.58  0.  0.  0.
260  2.59  0.  0.  0.
261  2.60  0.  0.  0.
262  2.61  0.  0.  0.
263  2.62  0.  0.  0.
264  2.63  0.  0.  0.
265  2.64  0.  0.  0.
266  2.65  0.  0.  0.
267  2.66  0.  0.  0.
268  2.67  0.  0.  0.
269  2.68  0.  0.  0.
270  2.69  0.  0.  0.
271  2.70  0.  0.  0.
272  2.71  0.  0.  0.
273  2.72  0.  0.  0.
274  2.73  0.  0.  0.
275  2.74  0.  0.  0.
276  2.75  0.  0.  0.
277  2.76  0.  0.  0.
278  2.77  0.  0.  0.
279  2.78  0.  0.  0.
280  2.79  0.  0.  0.
281  2.80  0.  0.  0.
282  2.81  0.  0.  0.
283  2.82  0.  0.  0.
284  2.83  0.  0.  0.
285  2.84  0.  0.  0.
286  2.85  0.  0.  0.
287  2.86  0.  0.  0.
288  2.87  0.  0.  0.
289  2.88  0.  0.  0.
290  2.89  0.  0.  0.
291  2.90  0.  0.  0.
292  2.91  0.  0.  0.
293  2.92  0.  0.  0.
294  2.93  0.  0.  0.
295  2.94  0.  0.  0.
296  2.95  0.  0.  0.
297  2.96  0.  0.  0.
298  2.97  0.  0.  0.
299  2.98  0.  0.  0.
300  2.99  0.  0.  0.
301  3.00  0.  0.  0.
302  3.01  0.  0.  0.
303  3.02  0.  0.  0.
304  3.03  0.  0.  0.
305  3.04  0.  0.  0.
306  3.05  0.  0.  0.
307  3.06  0.  0.  0.
308  3.07  0.  0.  0.
309  3.08  0.  0.  0.
310  3.09  0.  0.  0.
311  3.10  0.  0.  0.
312  3.11  0.  0.  0.
313  3.12  0.  0.  0.
314  3.13  0.  0.  0.
315  3.14  0.  0.  0.
316  3.15  0.  0.  0.
317  3.16  0.  0.  0.
318  3.17  0.  0.  0.
319  3.18  0.  0.  0.
320  3.19  0.  0.  0.
321  3.20  0.  0.  0.
322  3.21  0.  0.  0.
323  3.22  0.  0.  0.
324  3.23  0.  0.  0.
325  3.24  0.  0.  0.
326  3.25  0.  0.  0.
327  3.26  0.  0.  0.
328  3.27  0.  0.  0.
329  3.28  0.  0.  0.
330  3.29  0.  0.  0.
331  3.30  0.  0.  0.
332  3.31  0.  0.  0.
333  3.32  0.  0.  0.
334  3.33  0.  0.  0.
335  3.34  0.  0.  0.
336  3.35  0.  0.  0.
337  3.36  0.  0.  0.
338  3.37  0.  0.  0.
339  3.38  0.  0.  0.
340  3.39  0.  0.  0.
341  3.40  0.  0.  0.
342  3.41  0.  0.  0.
343  3.42  0.  0.  0.
344  3.43  0.  0.  0.
345  3.44  0.  0.  0.
346  3.45  0.  0.  0.
347  3.46  0.  0.  0.
348  3.47  0.  0.  0.
349  3.48  0.  0.  0.
350  3.49  0.  0.  0.
351  3.50  0.  0.  0.
352  3.51  0.  0.  0.
353  3.52  0.  0.  0.
354  3.53  0.  0.  0.
355  3.54  0.  0.  0.
356  3.55  0.  0.  0.
357  3.56  0.  0.  0.
358  3.57  0.  0.  0.
359  3.58  0.  0.  0.
360  3.59  0.  0.  0.
361  3.60  0.  0.  0.
362  3.61  0.  0.  0.
363  3.62  0.  0.  0.
364  3.63  0.  0.  0.
365  3.64  0.  0.  0.
366  3.65  0.  0.  0.
367  3.66  0.  0.  0.
368  3.67  0.  0.  0.
369  3.68  0.  0.  0.
370  3.69  0.  0.  0.
371  3.70  0.  0.  0.
372  3.71  0.  0.  0.
373  3.72  0.  0.  0.
374  3.73  0.  0.  0.
375  3.74  0.  0.  0.
376  3.75  0.  0.  0.
377  3.76  0.  0.  0.
378  3.77  0.  0.  0.
379  3.78  0.  0.  0.
380  3.79  0.  0.  0.
381  3.80  0.  0.  0.
382  3.81  0.  0.  0.
383  3.82  0.  0.  0.
384  3.83  0.  0.  0.
385  3.84  0.  0.  0.
386  3.85  0.  0.  0.
387  3.86  0.  0.  0.
388  3.87  0.  0.  0.
389  3.88  0.  0.  0.
390  3.89  0.  0.  0.
391  3.90  0.  0.  0.
392  3.91  0.  0.  0.
393  3.92  0.  0.  0.
394  3.93  0.  0.  0.
395  3.94  0.  0.  0.
396  3.95  0.  0.  0.
397  3.96  0.  0.  0.
398  3.97  0.  0.  0.
399  3.98  0.  0.  0.
400  3.99  0.  0.  0.
401  4.00  0.  0.  0.
402  4.01  0.  0.  0.
403  4.02  0.  0.  0.
404  4.03  0.  0.  0.
405  4.04  0.  0.  0.
406  4.05  0.  0.  0.
407  4.06  0.  0.  0.
408  4.07  0.  0.  0.
409  4.08  0.  0.  0.
410  4.09  0.  0.  0.
411  4.10  0.  0.  0.
412  4.11  0.  0.  0.
413  4.12  0.  0.  0.
414  4.13  0.  0.  0.
415  4.14  0.  0.  0.
416  4.15  0.  0.  0.
417  4.16  0.  0.  0.
418  4.17  0.  0.  0.
419  4.18  0.  0.  0.
420  4.19  0.  0.  0.
421  4.20  0.  0.  0.
422  4.21  0.  0.  0.
423  4.22  0.  0.  0.
424  4.23  0.  0.  0.
425  4.24  0.  0.  0.
426  4.25  0.  0.  0.
427  4.26  0.  0.  0.
428  4.27  0.  0.  0.
429  4.28  0.  0.  0.
430  4.29  0.  0.  0.
431  4.30  0.  0.  0.
432  4.31  0.  0.  0.
433  4.32  0.  0.  0.
434  4.33  0.  0.  0.
435  4.34  0.  0.  0.
436  4.35  0.  0.  0.
437  4.36  0.  0.  0.
438  4.37  0.  0.  0.
439  4.38  0.  0.  0.
440  4.39  0.  0.  0.
441  4.40  0.  0.  0.
442  4.41  0.  0.  0.
443  4.42  0.  0.  0.
444  4.43  0.  0.  0.
445  4.44  0.  0.  0.
446  4.45  0.  0.  0.
447  4.46  0.  0.  0.
448  4.47  0.  0.  0.
449  4.48  0.  0.  0.
450  4.49  0.  0.  0.
451  4.50  0.  0.  0.
452  4.51  0.  0.  0.
453  4.52  0.  0.  0.
454  4.53  0.  0.  0.
455  4.54  0.  0.  0.
456  4.55  0.  0.  0.
457  4.56  0.  0.  0.
458  4.57  0.  0.  0.
459  4.58  0.  0.  0.
460  4.59  0.  0.  0.
461  4.60  0.  0.  0.
462  4.61  0.  0.  0.
463  4.62  0.  0.  0.
464  4.63  0.  0.  0.
465  4.64  0.  0.  0.
466  4.65  0.  0.  0.
467  4.66  0.  0.  0.
468  4.67  0.  0.  0.
469  4.68  0.  0.  0.
470  4.69  0.  0.  0.
471  4.70  0.  0.  0.
472  4.71  0.  0.  0.
473  4.72  0.  0.  0.
474  4.73  0.  0.  0.
475  4.74  0.  0.  0.
476  4.75  0.  0.  0.
477  4.76  0.  0.  0.
478  4.77  0.  0.  0.
479  4.78  0.  0.  0.
480  4.79  0.  0.  0.
481  4.80  0.  0.  0.
482  4.81  0.  0.  0.
483  4.82  0.  0.  0.
484  4.83  0.  0.  0.
485  4.84  0.  0.  0.
486  4.85  0.  0.  0.
487  4.86  0.  0.  0.
488  4.87  0.  0.  0.
489  4.88  0.  0.  0.
490  4.89  0.  0.  0.
491  4.90  0.  0.  0.
492  4.91  0.  0.  0.
493  4.92  0.  0.  0.
494  4.93  0.  0.  0.
495  4.94  0.  0.  0.
496  4.95  0.  0.  0.
497  4.96  0.  0.  0.
498  4.97  0.  0.  0.
499  4.98  0.  0.  0.
500  4.99  0.  0.  0.
501  5.00  0.  0.  0.
502  5.01  0.  0.  0.
503  5.02  0.  0.  0.
504  5.03  0.  0.  0.
505  5.04  0.  0.  0.
506  5.05  0.  0.  0.
507  5.06  0.  0.  0.
508  5.07  0.  0.  0.
509  5.08  0.  0.  0.
510  5.09  0.  0.  0.
511  5.10  0.  0.  0.
512  5.11  0.  0.  0.
513  5.12  0.  0.  0.
514  5.13  0.  0.  0.
515  5.14  0.  0.  0.
516  5.15  0.  0.  0.
517  5.16  0.  0.  0.
518  5.17  0.  0.  0.
519  5.18  0.  0.  0.
520  5.19  0.  0.  0.
521  5.20  0.  0.  0.
522  5.21  0.  0.  0.
523  5.22  0.  0.  0.
524  5.23  0.  0.  0.
525  5.24  0.  0.  0.
526  5.25  0.  0.  0.
527  5.26  0.  0.  0.
528  5.27  0.  0.  0.
529  5.28  0.  0.  0.
530  5.29  0.  0.  0.
531  5.30  0.  0.  0.
532  5.31  0.  0.  0.
533  5.32  0.  0.  0.
534  5.33  0.  0.  0.
535  5.34  0.  0.  0.
536  5.35  0.  0.  0.
537  5.36  0.  0.  0.
538  5.37  0.  0.  0.
539  5.38  0.  0.  0.
540  5.39  0.  0.  0.
541  5.40  0.  0.  0.
542  5.41  0.  0.  0.
543  5.42  0.  0.  0.
544  5.43  0.  0.  0.
545  5.44  0.  0.  0.
546  5.45  0.  0.  0.
547  5.46  0.  0.  0.
548  5.47  0.  0.  0.
549  5.48  0.  0.  0.
550  5.49  0.  0.  0.
551  5.50  0.  0.  0.
552  5.51  0.  0.  0.
553  5.52  0.  0.  0.
554  5.53  0.  0.  0.
555  5.54  0.  0.  0.
556  5.55  0.  0.  0.
557  5.56  0.  0.  0.
558  5.57  0.  0.  0.
559  5.58  0.  0.  0.
560  5.59  0.  0.  0.
561  5.60  0.  0.  0.
562  5.61  0.  0.  0.
563  5.62  0.  0.  0.
564  5.63  0.  0.  0.
565  5.64  0.  0.  0.
566  5.65  0.  0.  0.
567  5.66  0.  0.  0.
568  5.67  0.  0.  0.
569  5.68  0.  0.  0.
570  5.69  0.  0.  0.
571  5.70  0.  0.  0.
572  5.71  0.  0.  0.
573  5.72  0.  0.  0.
574  5.73  0.  0.  0.
575  5.74  0.  0.  0.
576  5.75  0.  0.  0.
577  5.76  0.  0.  0.
578  5.77  0.  0.  0.
579  5.78  0.  0.  0.
580  5.79  0.  0.  0.
581  5.80  0.  0.  0.
582  5.81  0.  0.  0.
583  5.82  0.  0.  0.
584  5.83  0.  0.  0.
585  5.84  0.  0.  0.
586  5.85  0.  0.  0.
587  5.86  0.  0.  0.
588  5.87  0.  0.  0.
589  5.88  0.  0.  0.
590  5.89  0.  0.  0.
591  5.90  0.  0.  0.
592  5.91  0.  0.  0.
593  5.92  0.  0.  0.
594  5.93  0.  0.  0.
595  5.94  0.  0.  0.
596  5.95  0.  0.  0.
597  5.96  0.  0.  0.
598  5.97  0.  0.  0.
599  5.98  0.  0.  0.
600  5.99  0.  0.  0.
1                        -4.1993961221213E+00 -3.5492773524832E-01
1  0.0000000000000E+00  1.5366574679376E-10  4.4605344140525E-09
2  1.0000000000000E-02  1.2015512364013E-03 -1.8183459658242E-03
3  2.0000000000000E-02  4.8018722914002E-03 -7.2658179890020E-03
4  3.0000000000000E-02  1.0787983434445E-02 -1.6319654825175E-02
5  4.0000000000000E-02  1.9138312477236E-02 -2.8941711738136E-02
6  5.0000000000000E-02  2.9822785546154E-02 -4.5078156042739E-02
7  6.0000000000000E-02  4.2802953620950E-02 -6.4659059700927E-02
8  7.0000000000000E-02  5.8032154297814E-02 -8.7597907265433E-02
9  8.0000000000000E-02  7.5455708081205E-02 -1.1379104192629E-01
10  9.0000000000000E-02  9.5011148356216E-02 -1.4311707633191E-01
11  1.0000000000000E-01  1.1662848404189E-01 -1.7543629811888E-01
12  1.1000000000000E-01  1.4023049377625E-01 -2.1059010262250E-01
13  1.2000000000000E-01  1.6573305033662E-01 -2.4840048697182E-01
14  1.3000000000000E-01  1.9304547385382E-01 -2.8866964065878E-01
15  1.4000000000000E-01  2.2207091223825E-01 -3.3117966767197E-01
16  1.5000000000000E-01  2.5270674709817E-01 -3.7569247438892E-01
17  1.6000000000000E-01  2.8484502329907E-01 -4.2194985563611E-01
18  1.7000000000000E-01  3.1837290018627E-01 -4.6967380867327E-01
19  1.8000000000000E-01  3.5317312237370E-01 -5.1856710138816E-01
20  1.9000000000000E-01  3.8912450789023E-01 -5.6831411675681E-01
21  2.0000000000000E-01  4.2610245137163E-01 -6.1858199071769E-01
22  2.1000000000000E-01  4.6397943989392E-01 -6.6902205511626E-01
23  2.2000000000000E-01  5.0262557896115E-01 -7.1927159141088E-01
24  2.3000000000000E-01  5.4190912609143E-01 -7.6895589451080E-01
25  2.4000000000000E-01  5.8169702938755E-01 -8.1769063957075E-01
26  2.5000000000000E-01  6.2185546843635E-01 -8.6508453792920E-01
27  2.6000000000000E-01  6.6225039485291E-01 -9.1074226178930E-01
28  2.7000000000000E-01  7.0274806977387E-01 -9.5426761083954E-01
29  2.8000000000000E-01  7.4321559560922E-01 -9.9526688793488E-01
30  2.9000000000000E-01  7.8352143938362E-01 -1.0333524453400E+00
31  3.0000000000000E-01  8.2353594503803E-01 -1.0681463579996E+00
32  3.1000000000000E-01  8.6313183212021E-01 -1.0992841759581E+00
33  3.2000000000000E-01  9.0218467836821E-01 -1.1264187045120E+00
34  3.3000000000000E-01  9.4057338378476E-01 -1.1492237580165E+00
35  3.4000000000000E-01  9.7818061391174E-01 -1.1673978315697E+00
36  3.5000000000000E-01  1.0148932201430E+00 -1.1806676341001E+00
37  3.6000000000000E-01  1.0506026350581E+00 -1.1887914267290E+00
38  3.7000000000000E-01  1.0852052409223E+00 -1.1915621116765E+00
39  3.8000000000000E-01  1.1186027096702E+00 -1.1888100194188E+00
40  3.9000000000000E-01  1.1507023128837E+00 -1.1804053452620E+00
41  4.0000000000000E-01  1.1814172004708E+00 -1.1662601909137E+00
42  4.1000000000000E-01  1.2106666469651E+00 -1.1463301719552E+00
43  4.2000000000000E-01  1.2383762645852E+00 -1.1206155582399E+00
44  4.3000000000000E-01  1.2644781824144E+00 -1.0891619210788E+00
45  4.4000000000000E-01  1.2889111912974E+00 -1.0520602684921E+00
46  4.5000000000000E-01  1.3116208542744E+00 -1.0094466576861E+00
47  4.6000000000000E-01  1.3325595826126E+00 -9.6150128210736E-01
48  4.7000000000000E-01  1.3516866777185E+00 -9.0844703878625E-01
49  4.8000000000000E-01  1.3689683394433E+00 -8.5054759006137E-01
50  4.9000000000000E-01  1.3843776415102E+00 -7.8810494201014E-01
51  5.0000000000000E-01  1.3978944750030E+00 -7.2145656985469E-01
52  5.1000000000000E-01  1.4095054610546E+00 -6.5097212811381E-01
53  5.2000000000000E-01  1.4192038340592E+00 -5.7704979018607E-01
54  5.3000000000000E-01  1.4269892969056E+00 -5.0011226824893E-01
55  5.4000000000000E-01  1.4328678498822E+00 -4.2060256972215E-01
56  5.5000000000000E-01  1.4368515950464E+00 -3.3897955096243E-01
57  5.6000000000000E-01  1.4389585179665E+00 -2.5571333225092E-01
58  5.7000000000000E-01  1.4392122488483E+00 -1.7128064042454E-01
59  5.8000000000000E-01  1.4376418051359E+00 -8.6160146649236E-02
60  5.9000000000000E-01  1.4342813177365E+00 -8.2786679984207E-04
61  6.0000000000000E-01  1.4291697430564E+00  8.4247309301177E-02
62  6.1000000000000E-01  1.4223505630537E+00  1.6860789591613E-01
63  6.2000000000000E-01  1.4138714755097E+00  2.5181183633303E-01
64  6.3000000000000E-01  1.4037840766966E+00  3.3343621893472E-01
65  6.4000000000000E-01  1.3921435385783E+00  4.1308063418190E-01
66  6.5000000000000E-01  1.3790082826200E+00  4.9037012876318E-01
67  6.6000000000000E-01  1.3644396522041E+00  5.6495772039980E-01
68  6.7000000000000E-01  1.3485015855602E+00  6.3652644468299E-01
69  6.8000000000000E-01  1.3312602910051E+00  7.0479091370852E-01
70  6.9000000000000E-01  1.3127839261772E+00  7.6949837501479E-01
71  7.0000000000000E-01  1.2931422828142E+00  8.3042926825725E-01
72  7.1000000000000E-01  1.2724064784922E+00  8.8739728600848E-01
73  7.2000000000000E-01  1.2506486565979E+00  9.4024895388095E-01
74  7.3000000000000E-01  1.2279416956591E+00  9.8886275367782E-01
75  7.4000000000000E-01  1.2043589290124E+00  1.0331478213144E+00
76  7.5000000000000E-01  1.1799738756344E+00  1.0730422586752E+00
77  7.6000000000000E-01  1.1548599828193E+00  1.1085111052361E+00
78  7.7000000000000E-01  1.1290903812401E+00  1.1395440210569E+00
79  7.8000000000000E-01  1.1027376527948E+00  1.1661527375345E+00
80  7.9000000000000E-01  1.0758736115071E+00  1.1883683359942E+00
81  8.0000000000000E-01  1.0485690976297E+00  1.2062384167280E+00
82  8.1000000000000E-01  1.0208937849875E+00  1.2198242224014E+00
83  8.2000000000000E-01  9.9291600149224E-01  1.2291977798177E+00
84  8.3000000000000E-01  9.6470256267583E-01  1.2344391228514E+00
85  8.4000000000000E-01  9.3631861800691E-01  1.2356336569491E+00
86  8.5000000000000E-01  9.0782750969240E-01  1.2328697219900E+00