Md    ONCVPSP-4.0.1  r_core=   1.10635   1.10635   1.00536   1.10635
101.0000     41.0000      230613    zatom,zion,pspd
8      11   3     4   600     0    pspcod,pspxc,lmax,lloc,mmax,r2well
5.99000000  2.70000000  0.00000000    rchrg fchrg qchrg
3     4     3     2    nproj
3     1           extension_switch
4     4     4    nprojso
0                         2.9233029325332E+01  3.9405368265423E+00 -5.9357442259601E-01
1  0.0000000000000E+00 -5.6270048176543E-08  1.7915538980118E-07  1.2403268423444E-07
2  1.0000000000000E-02  1.6280354829881E-01 -5.3865276168465E-02  1.6706807956423E-02
3  2.0000000000000E-02  3.2443462211380E-01 -1.0632756897084E-01  3.3826044768619E-02
4  3.0000000000000E-02  4.8373577025324E-01 -1.5601922080765E-01  5.1749003571588E-02
5  4.0000000000000E-02  6.3957918454189E-01 -2.0164198647023E-01  7.0825578541046E-02
6  5.0000000000000E-02  7.9088052807413E-01 -2.4199869128649E-01  9.1345712353598E-02
7  6.0000000000000E-02  9.3661161476517E-01 -2.7602136900758E-01  1.1352332536460E-01
8  7.0000000000000E-02  1.0758116273700E+00 -3.0279492892925E-01  1.3748340000918E-01
9  8.0000000000000E-02  1.2075966174096E+00 -3.2157558089722E-01  1.6325276989910E-01
10  9.0000000000000E-02  1.3311670962316E+00 -3.3180345648060E-01  1.9075501736532E-01
11  1.0000000000000E-01  1.4458135989875E+00 -3.3310909604535E-01  2.1980972145615E-01
12  1.1000000000000E-01  1.5509201795934E+00 -3.2531371515298E-01  2.5013612694394E-01
13  1.2000000000000E-01  1.6459658715740E+00 -3.0842340957003E-01  2.8136113039514E-01
14  1.3000000000000E-01  1.7305242238477E+00 -2.8261769603682E-01  3.1303130861421E-01
15  1.4000000000000E-01  1.8042610889063E+00 -2.4823300596046E-01  3.4462855443704E-01
16  1.5000000000000E-01  1.8669309006191E+00 -2.0574194227927E-01  3.7558874116165E-01
17  1.6000000000000E-01  1.9183717275535E+00 -1.5572926789686E-01  4.0532271546831E-01
18  1.7000000000000E-01  1.9584994232442E+00 -9.8865710778300E-02  4.3323882422281E-01
19  1.8000000000000E-01  1.9873012157972E+00 -3.5880741229339E-02  4.5876611675521E-01
20  1.9000000000000E-01  2.0048290847424E+00  3.2464501840634E-02  4.8137733354935E-01
21  2.0000000000000E-01  2.0111932629738E+00  1.0540298755632E-01  5.0061079594994E-01
22  2.1000000000000E-01  2.0065561764335E+00  1.8218520188996E-01  5.1609034935658E-01
23  2.2000000000000E-01  1.9911270950343E+00  2.6209924069761E-01  5.2754258294035E-01
24  2.3000000000000E-01  1.9651577169394E+00  3.4448680195652E-01  5.3481064944175E-01
25  2.4000000000000E-01  1.9289388469940E+00  4.2875448833246E-01  5.3786413516439E-01
26  2.5000000000000E-01  1.8827982615648E+00  5.1438005223925E-01  5.3680457794344E-01
27  2.6000000000000E-01  1.8270997793298E+00  6.0091345203800E-01  5.3186639388833E-01
28  2.7000000000000E-01  1.7622434839258E+00  6.8797282986702E-01  5.2341314574253E-01
29  2.8000000000000E-01  1.6886669731088E+00  7.7523575843115E-01  5.1192926008944E-01
30  2.9000000000000E-01  1.6068474434390E+00  8.6242632572910E-01  4.9800747060757E-01
31  3.0000000000000E-01  1.5173043624836E+00  9.4929882357121E-01  4.8233242357265E-01
32  3.1000000000000E-01  1.4206024347888E+00  1.0356189692794E+00  4.6566102370425E-01
33  3.2000000000000E-01  1.3173545356125E+00  1.1211437129505E+00  4.4880021782128E-01
34  3.3000000000000E-01  1.2082242692578E+00  1.2056007596203E+00  4.3258300608744E-01
35  3.4000000000000E-01  1.0939278077986E+00  1.2886689629756E+00  4.1784353243349E-01
36  3.5000000000000E-01  9.7523468136427E-01  1.3699607234608E+00  4.0539213480965E-01
37  3.6000000000000E-01  8.5296722253776E-01  1.4490074493472E+00  3.9599123130422E-01
38  3.7000000000000E-01  7.2799841375011E-01  1.5252490174177E+00  3.9033288026149E-01
39  3.8000000000000E-01  6.0124794606688E-01  1.5980280051870E+00  3.8901878304017E-01
40  3.9000000000000E-01  4.7367636813603E-01  1.6665892657373E+00  3.9254339992005E-01
41  4.0000000000000E-01  3.4627728247775E-01  1.7300851875467E+00  4.0128072693927E-01
42  4.1000000000000E-01  2.2006762954261E-01  1.7875867346207E+00  4.1547513913443E-01
43  4.2000000000000E-01  9.6076184601674E-02  1.8381001071224E+00  4.3523654950223E-01
44  4.3000000000000E-01 -2.4669524989987E-02  1.8805886102692E+00  4.6053996925683E-01
45  4.4000000000000E-01 -1.4115759779659E-01  1.9139990801928E+00  4.9122939012684E-01
46  4.5000000000000E-01 -2.5240707936124E-01  1.9372919999391E+00  5.2702575000917E-01
47  4.6000000000000E-01 -3.5748381819808E-01  1.9494742560514E+00  5.6753859549388E-01
48  4.7000000000000E-01 -4.5551640712985E-01  1.9496333441806E+00  6.1228092428855E-01
49  4.8000000000000E-01 -5.4571173530363E-01  1.9369717371491E+00  6.6068658234649E-01
50  4.9000000000000E-01 -6.2736966880742E-01  1.9108400852104E+00  7.1212950853458E-01
51  5.0000000000000E-01 -6.9989638863334E-01  1.8707679280942E+00  7.6594406685929E-01
52  5.1000000000000E-01 -7.6281594362296E-01  1.8164906618198E+00  8.2144568429073E-01
53  5.2000000000000E-01 -8.1577962207060E-01  1.7479716179570E+00  8.7795102149249E-01
54  5.3000000000000E-01 -8.5857280724508E-01  1.6654182746669E+00  9.3479694342864E-01
55  5.4000000000000E-01 -8.9111905696640E-01  1.5692918211506E+00  9.9135762478802E-01
56  5.5000000000000E-01 -9.1348123274808E-01  1.4603095320762E+00  1.0470592182261E+00
57  5.6000000000000E-01 -9.2585959666466E-01  1.3394396667969E+00  1.1013916273861E+00
58  5.7000000000000E-01 -9.2858689050146E-01  1.2078888794073E+00  1.1539170565118E+00
59  5.8000000000000E-01 -9.2212050822267E-01  1.0670823990885E+00  1.2042751486463E+00
60  5.9000000000000E-01 -9.0703196567500E-01  9.1863750484955E-01  1.2521846689681E+00
61  6.0000000000000E-01 -8.8399395721163E-01  7.6433106418563E-01  1.2974418327569E+00
62  6.1000000000000E-01 -8.5376536434650E-01  6.0606212162541E-01  1.3399155129162E+00
63  6.2000000000000E-01 -8.1717464383610E-01  4.4581070218307E-01  1.3795396844501E+00
64  6.3000000000000E-01 -7.7510206947270E-01  2.8559412943094E-01  1.4163035679529E+00
65  6.4000000000000E-01 -7.2846133172914E-01  1.2742224322219E-01  1.4502400169749E+00
66  6.5000000000000E-01 -6.7818101127337E-01 -2.6747065022506E-02  1.4814127520277E+00
67  6.6000000000000E-01 -6.2518643604518E-01 -1.7505060198065E-01  1.5099030749918E+00
68  6.7000000000000E-01 -5.7038240754740E-01 -3.1575958204612E-01  1.5357967009672E+00
69  6.8000000000000E-01 -5.1463724143102E-01 -4.4731509309097E-01  1.5591713204997E+00
70  6.9000000000000E-01 -4.5876851214943E-01 -5.6835827923220E-01  1.5800854550900E+00
71  7.0000000000000E-01 -4.0353082377938E-01 -6.7775440267977E-01  1.5985690954844E+00
72  7.1000000000000E-01 -3.4960585183074E-01 -7.7461017627947E-01  1.6146165189205E+00
73  7.2000000000000E-01 -2.9759481710833E-01 -8.5828400693287E-01  1.6281815725071E+00
74  7.3000000000000E-01 -2.4801346570985E-01 -9.2838904789193E-01  1.6391755900930E+00
75  7.4000000000000E-01 -2.0128954238885E-01 -9.8478921491040E-01  1.6474679845765E+00
76  7.5000000000000E-01 -1.5776266099798E-01 -1.0275885676412E+00  1.6528894320226E+00
77  7.6000000000000E-01 -1.1768639858116E-01 -1.0571146842818E+00  1.6552374435956E+00
78  7.7000000000000E-01 -8.1232371591365E-02 -1.0738968560546E+00  1.6542840113241E+00
79  7.8000000000000E-01 -4.8495995941915E-02 -1.0786400916553E+00  1.6497849188355E+00
80  7.9000000000000E-01 -1.9503588929439E-02 -1.0721960447649E+00  1.6414902325986E+00
81  8.0000000000000E-01  5.7795582472315E-03 -1.0555320560996E+00  1.6291554363831E+00
82  8.1000000000000E-01  2.7440522909190E-02 -1.0296995329638E+00  1.6125526442825E+00
83  8.2000000000000E-01  4.5609892831933E-02 -9.9580287314149E-01  1.5914813276553E+00
84  8.3000000000000E-01  6.0453076390088E-02 -9.5497007700410E-01  1.5657780198009E+00
85  8.4000000000000E-01  7.2162119576900E-02 -9.0832608402924E-01  1.5353245194091E+00
86  8.5000000000000E-01  8.0948325456822E-02 -8.5696972069508E-01  1.5000541994273E+00
87  8.6000000000000E-01  8.7035916755922E-02 -8.0195495988412E-01  1.4599561410174E+00
88  8.7000000000000E-01  9.0656917146261E-02 -7.4427697188197E-01  1.4150769513143E+00
89  8.8000000000000E-01  9.2047352791236E-02 -6.8486319824666E-01  1.3655202870587E+00
90  8.9000000000000E-01  9.1444794231825E-02 -6.2456940643549E-01  1.3114442920430E+00
91  9.0000000000000E-01  8.9087170818491E-02 -5.6418038865357E-01  1.2530573629052E+00
92  9.1000000000000E-01  8.5212696404317E-02 -5.0441465553056E-01  1.1906128835853E+00
93  9.2000000000000E-01  8.0060646261672E-02 -4.4593214531869E-01  1.1244038125036E+00
94  9.3000000000000E-01  7.3872621013612E-02 -3.8934362225356E-01  1.0547582675332E+00
95  9.4000000000000E-01  6.6893823077004E-02 -3.3522007183511E-01  9.8203753199587E-01
96  9.5000000000000E-01  5.9373753399314E-02 -2.8410001263001E-01  9.0663820077374E-01
97  9.6000000000000E-01  5.1565609288783E-02 -2.3649222872064E-01  8.2900050038540E-01
98  9.7000000000000E-01  4.3723525338901E-02 -1.9287097696515E-01  7.4962515269501E-01
99  9.8000000000000E-01  3.6096645925570E-02 -1.5366023060190E-01  6.6910151126756E-01
100  9.9000000000000E-01  2.8918844952143E-02 -1.1920297121886E-01  5.8815009273557E-01
101  1.0000000000000E+00  2.2392729374985E-02 -8.9710993293260E-02  5.0768292919878E-01
102  1.0100000000000E+00  1.6666384480711E-02 -6.5190171527056E-02  4.2888531307963E-01
103  1.0200000000000E+00  1.1816421774320E-02 -4.5397925638463E-02  3.5321351598794E-01
104  1.0300000000000E+00  7.8703931913922E-03 -2.9960214962976E-02  2.8212027854837E-01
105  1.0400000000000E+00  4.8194391071538E-03 -1.8436939190067E-02  2.1692484634139E-01
106  1.0500000000000E+00  2.6189828726591E-03 -1.0333875691767E-02  1.5879412905668E-01
107  1.0600000000000E+00  1.1402017400518E-03 -4.9735791047254E-03  1.0867981671034E-01
108  1.0700000000000E+00  2.4949869732104E-04 -1.7228947674417E-03  6.7371700992828E-02
109  1.0800000000000E+00 -1.3692356534226E-04 -1.6029185176702E-04  3.5554311420963E-02
110  1.0900000000000E+00 -1.6697591622678E-04  2.3973977697016E-04  1.3703459530440E-02
111  1.1000000000000E+00 -4.4042232533846E-05  8.3637931956885E-05  2.0677884822525E-03
112  1.1100000000000E+00  2.7698123648042E-06 -5.6835614856446E-06 -9.6928225558909E-05
113  1.1200000000000E+00  2.3370710890903E-08 -4.4486884403334E-08 -1.1038852305024E-06
114  1.13  0.  0.  0.
115  1.14  0.  0.  0.
116  1.15  0.  0.  0.
117  1.16  0.  0.  0.
118  1.17  0.  0.  0.
119  1.18  0.  0.  0.
120  1.19  0.  0.  0.
121  1.20  0.  0.  0.
122  1.21  0.  0.  0.
123  1.22  0.  0.  0.
124  1.23  0.  0.  0.
125  1.24  0.  0.  0.
126  1.25  0.  0.  0.
127  1.26  0.  0.  0.
128  1.27  0.  0.  0.
129  1.28  0.  0.  0.
130  1.29  0.  0.  0.
131  1.30  0.  0.  0.
132  1.31  0.  0.  0.
133  1.32  0.  0.  0.
134  1.33  0.  0.  0.
135  1.34  0.  0.  0.
136  1.35  0.  0.  0.
137  1.36  0.  0.  0.
138  1.37  0.  0.  0.
139  1.38  0.  0.  0.
140  1.39  0.  0.  0.
141  1.40  0.  0.  0.
142  1.41  0.  0.  0.
143  1.42  0.  0.  0.
144  1.43  0.  0.  0.
145  1.44  0.  0.  0.
146  1.45  0.  0.  0.
147  1.46  0.  0.  0.
148  1.47  0.  0.  0.
149  1.48  0.  0.  0.
150  1.49  0.  0.  0.
151  1.50  0.  0.  0.
152  1.51  0.  0.  0.
153  1.52  0.  0.  0.
154  1.53  0.  0.  0.
155  1.54  0.  0.  0.
156  1.55  0.  0.  0.
157  1.56  0.  0.  0.
158  1.57  0.  0.  0.
159  1.58  0.  0.  0.
160  1.59  0.  0.  0.
161  1.60  0.  0.  0.
162  1.61  0.  0.  0.
163  1.62  0.  0.  0.
164  1.63  0.  0.  0.
165  1.64  0.  0.  0.
166  1.65  0.  0.  0.
167  1.66  0.  0.  0.
168  1.67  0.  0.  0.
169  1.68  0.  0.  0.
170  1.69  0.  0.  0.
171  1.70  0.  0.  0.
172  1.71  0.  0.  0.
173  1.72  0.  0.  0.
174  1.73  0.  0.  0.
175  1.74  0.  0.  0.
176  1.75  0.  0.  0.
177  1.76  0.  0.  0.
178  1.77  0.  0.  0.
179  1.78  0.  0.  0.
180  1.79  0.  0.  0.
181  1.80  0.  0.  0.
182  1.81  0.  0.  0.
183  1.82  0.  0.  0.
184  1.83  0.  0.  0.
185  1.84  0.  0.  0.
186  1.85  0.  0.  0.
187  1.86  0.  0.  0.
188  1.87  0.  0.  0.
189  1.88  0.  0.  0.
190  1.89  0.  0.  0.
191  1.90  0.  0.  0.
192  1.91  0.  0.  0.
193  1.92  0.  0.  0.
194  1.93  0.  0.  0.
195  1.94  0.  0.  0.
196  1.95  0.  0.  0.
197  1.96  0.  0.  0.
198  1.97  0.  0.  0.
199  1.98  0.  0.  0.
200  1.99  0.  0.  0.
201  2.00  0.  0.  0.
202  2.01  0.  0.  0.
203  2.02  0.  0.  0.
204  2.03  0.  0.  0.
205  2.04  0.  0.  0.
206  2.05  0.  0.  0.
207  2.06  0.  0.  0.
208  2.07  0.  0.  0.
209  2.08  0.  0.  0.
210  2.09  0.  0.  0.
211  2.10  0.  0.  0.
212  2.11  0.  0.  0.
213  2.12  0.  0.  0.
214  2.13  0.  0.  0.
215  2.14  0.  0.  0.
216  2.15  0.  0.  0.
217  2.16  0.  0.  0.
218  2.17  0.  0.  0.
219  2.18  0.  0.  0.
220  2.19  0.  0.  0.
221  2.20  0.  0.  0.
222  2.21  0.  0.  0.
223  2.22  0.  0.  0.
224  2.23  0.  0.  0.
225  2.24  0.  0.  0.
226  2.25  0.  0.  0.
227  2.26  0.  0.  0.
228  2.27  0.  0.  0.
229  2.28  0.  0.  0.
230  2.29  0.  0.  0.
231  2.30  0.  0.  0.
232  2.31  0.  0.  0.
233  2.32  0.  0.  0.
234  2.33  0.  0.  0.
235  2.34  0.  0.  0.
236  2.35  0.  0.  0.
237  2.36  0.  0.  0.
238  2.37  0.  0.  0.
239  2.38  0.  0.  0.
240  2.39  0.  0.  0.
241  2.40  0.  0.  0.
242  2.41  0.  0.  0.
243  2.42  0.  0.  0.
244  2.43  0.  0.  0.
245  2.44  0.  0.  0.
246  2.45  0.  0.  0.
247  2.46  0.  0.  0.
248  2.47  0.  0.  0.
249  2.48  0.  0.  0.
250  2.49  0.  0.  0.
251  2.50  0.  0.  0.
252  2.51  0.  0.  0.
253  2.52  0.  0.  0.
254  2.53  0.  0.  0.
255  2.54  0.  0.  0.
256  2.55  0.  0.  0.
257  2.56  0.  0.  0.
258  2.57  0.  0.  0.
259  2.58  0.  0.  0.
260  2.59  0.  0.  0.
261  2.60  0.  0.  0.
262  2.61  0.  0.  0.
263  2.62  0.  0.  0.
264  2.63  0.  0.  0.
265  2.64  0.  0.  0.
266  2.65  0.  0.  0.
267  2.66  0.  0.  0.
268  2.67  0.  0.  0.
269  2.68  0.  0.  0.
270  2.69  0.  0.  0.
271  2.70  0.  0.  0.
272  2.71  0.  0.  0.
273  2.72  0.  0.  0.
274  2.73  0.  0.  0.
275  2.74  0.  0.  0.
276  2.75  0.  0.  0.
277  2.76  0.  0.  0.
278  2.77  0.  0.  0.
279  2.78  0.  0.  0.
280  2.79  0.  0.  0.
281  2.80  0.  0.  0.
282  2.81  0.  0.  0.
283  2.82  0.  0.  0.
284  2.83  0.  0.  0.
285  2.84  0.  0.  0.
286  2.85  0.  0.  0.
287  2.86  0.  0.  0.
288  2.87  0.  0.  0.
289  2.88  0.  0.  0.
290  2.89  0.  0.  0.
291  2.90  0.  0.  0.
292  2.91  0.  0.  0.
293  2.92  0.  0.  0.
294  2.93  0.  0.  0.
295  2.94  0.  0.  0.
296  2.95  0.  0.  0.
297  2.96  0.  0.  0.
298  2.97  0.  0.  0.
299  2.98  0.  0.  0.
300  2.99  0.  0.  0.
301  3.00  0.  0.  0.
302  3.01  0.  0.  0.
303  3.02  0.  0.  0.
304  3.03  0.  0.  0.
305  3.04  0.  0.  0.
306  3.05  0.  0.  0.
307  3.06  0.  0.  0.
308  3.07  0.  0.  0.
309  3.08  0.  0.  0.
310  3.09  0.  0.  0.
311  3.10  0.  0.  0.
312  3.11  0.  0.  0.
313  3.12  0.  0.  0.
314  3.13  0.  0.  0.
315  3.14  0.  0.  0.
316  3.15  0.  0.  0.
317  3.16  0.  0.  0.
318  3.17  0.  0.  0.
319  3.18  0.  0.  0.
320  3.19  0.  0.  0.
321  3.20  0.  0.  0.
322  3.21  0.  0.  0.
323  3.22  0.  0.  0.
324  3.23  0.  0.  0.
325  3.24  0.  0.  0.
326  3.25  0.  0.  0.
327  3.26  0.  0.  0.
328  3.27  0.  0.  0.
329  3.28  0.  0.  0.
330  3.29  0.  0.  0.
331  3.30  0.  0.  0.
332  3.31  0.  0.  0.
333  3.32  0.  0.  0.
334  3.33  0.  0.  0.
335  3.34  0.  0.  0.
336  3.35  0.  0.  0.
337  3.36  0.  0.  0.
338  3.37  0.  0.  0.
339  3.38  0.  0.  0.
340  3.39  0.  0.  0.
341  3.40  0.  0.  0.
342  3.41  0.  0.  0.
343  3.42  0.  0.  0.
344  3.43  0.  0.  0.
345  3.44  0.  0.  0.
346  3.45  0.  0.  0.
347  3.46  0.  0.  0.
348  3.47  0.  0.  0.
349  3.48  0.  0.  0.
350  3.49  0.  0.  0.
351  3.50  0.  0.  0.
352  3.51  0.  0.  0.
353  3.52  0.  0.  0.
354  3.53  0.  0.  0.
355  3.54  0.  0.  0.
356  3.55  0.  0.  0.
357  3.56  0.  0.  0.
358  3.57  0.  0.  0.
359  3.58  0.  0.  0.
360  3.59  0.  0.  0.
361  3.60  0.  0.  0.
362  3.61  0.  0.  0.
363  3.62  0.  0.  0.
364  3.63  0.  0.  0.
365  3.64  0.  0.  0.
366  3.65  0.  0.  0.
367  3.66  0.  0.  0.
368  3.67  0.  0.  0.
369  3.68  0.  0.  0.
370  3.69  0.  0.  0.
371  3.70  0.  0.  0.
372  3.71  0.  0.  0.
373  3.72  0.  0.  0.
374  3.73  0.  0.  0.
375  3.74  0.  0.  0.
376  3.75  0.  0.  0.
377  3.76  0.  0.  0.
378  3.77  0.  0.  0.
379  3.78  0.  0.  0.
380  3.79  0.  0.  0.
381  3.80  0.  0.  0.
382  3.81  0.  0.  0.
383  3.82  0.  0.  0.
384  3.83  0.  0.  0.
385  3.84  0.  0.  0.
386  3.85  0.  0.  0.
387  3.86  0.  0.  0.
388  3.87  0.  0.  0.
389  3.88  0.  0.  0.
390  3.89  0.  0.  0.
391  3.90  0.  0.  0.
392  3.91  0.  0.  0.
393  3.92  0.  0.  0.
394  3.93  0.  0.  0.
395  3.94  0.  0.  0.
396  3.95  0.  0.  0.
397  3.96  0.  0.  0.
398  3.97  0.  0.  0.
399  3.98  0.  0.  0.
400  3.99  0.  0.  0.
401  4.00  0.  0.  0.
402  4.01  0.  0.  0.
403  4.02  0.  0.  0.
404  4.03  0.  0.  0.
405  4.04  0.  0.  0.
406  4.05  0.  0.  0.
407  4.06  0.  0.  0.
408  4.07  0.  0.  0.
409  4.08  0.  0.  0.
410  4.09  0.  0.  0.
411  4.10  0.  0.  0.
412  4.11  0.  0.  0.
413  4.12  0.  0.  0.
414  4.13  0.  0.  0.
415  4.14  0.  0.  0.
416  4.15  0.  0.  0.
417  4.16  0.  0.  0.
418  4.17  0.  0.  0.
419  4.18  0.  0.  0.
420  4.19  0.  0.  0.
421  4.20  0.  0.  0.
422  4.21  0.  0.  0.
423  4.22  0.  0.  0.
424  4.23  0.  0.  0.
425  4.24  0.  0.  0.
426  4.25  0.  0.  0.
427  4.26  0.  0.  0.
428  4.27  0.  0.  0.
429  4.28  0.  0.  0.
430  4.29  0.  0.  0.
431  4.30  0.  0.  0.
432  4.31  0.  0.  0.
433  4.32  0.  0.  0.
434  4.33  0.  0.  0.
435  4.34  0.  0.  0.
436  4.35  0.  0.  0.
437  4.36  0.  0.  0.
438  4.37  0.  0.  0.
439  4.38  0.  0.  0.
440  4.39  0.  0.  0.
441  4.40  0.  0.  0.
442  4.41  0.  0.  0.
443  4.42  0.  0.  0.
444  4.43  0.  0.  0.
445  4.44  0.  0.  0.
446  4.45  0.  0.  0.
447  4.46  0.  0.  0.
448  4.47  0.  0.  0.
449  4.48  0.  0.  0.
450  4.49  0.  0.  0.
451  4.50  0.  0.  0.
452  4.51  0.  0.  0.
453  4.52  0.  0.  0.
454  4.53  0.  0.  0.
455  4.54  0.  0.  0.
456  4.55  0.  0.  0.
457  4.56  0.  0.  0.
458  4.57  0.  0.  0.
459  4.58  0.  0.  0.
460  4.59  0.  0.  0.
461  4.60  0.  0.  0.
462  4.61  0.  0.  0.
463  4.62  0.  0.  0.
464  4.63  0.  0.  0.
465  4.64  0.  0.  0.
466  4.65  0.  0.  0.
467  4.66  0.  0.  0.
468  4.67  0.  0.  0.
469  4.68  0.  0.  0.
470  4.69  0.  0.  0.
471  4.70  0.  0.  0.
472  4.71  0.  0.  0.
473  4.72  0.  0.  0.
474  4.73  0.  0.  0.
475  4.74  0.  0.  0.
476  4.75  0.  0.  0.
477  4.76  0.  0.  0.
478  4.77  0.  0.  0.
479  4.78  0.  0.  0.
480  4.79  0.  0.  0.
481  4.80  0.  0.  0.
482  4.81  0.  0.  0.
483  4.82  0.  0.  0.
484  4.83  0.  0.  0.
485  4.84  0.  0.  0.
486  4.85  0.  0.  0.
487  4.86  0.  0.  0.
488  4.87  0.  0.  0.
489  4.88  0.  0.  0.
490  4.89  0.  0.  0.
491  4.90  0.  0.  0.
492  4.91  0.  0.  0.
493  4.92  0.  0.  0.
494  4.93  0.  0.  0.
495  4.94  0.  0.  0.
496  4.95  0.  0.  0.
497  4.96  0.  0.  0.
498  4.97  0.  0.  0.
499  4.98  0.  0.  0.
500  4.99  0.  0.  0.
501  5.00  0.  0.  0.
502  5.01  0.  0.  0.
503  5.02  0.  0.  0.
504  5.03  0.  0.  0.
505  5.04  0.  0.  0.
506  5.05  0.  0.  0.
507  5.06  0.  0.  0.
508  5.07  0.  0.  0.
509  5.08  0.  0.  0.
510  5.09  0.  0.  0.
511  5.10  0.  0.  0.
512  5.11  0.  0.  0.
513  5.12  0.  0.  0.
514  5.13  0.  0.  0.
515  5.14  0.  0.  0.
516  5.15  0.  0.  0.
517  5.16  0.  0.  0.
518  5.17  0.  0.  0.
519  5.18  0.  0.  0.
520  5.19  0.  0.  0.
521  5.20  0.  0.  0.
522  5.21  0.  0.  0.
523  5.22  0.  0.  0.
524  5.23  0.  0.  0.
525  5.24  0.  0.  0.
526  5.25  0.  0.  0.
527  5.26  0.  0.  0.
528  5.27  0.  0.  0.
529  5.28  0.  0.  0.
530  5.29  0.  0.  0.
531  5.30  0.  0.  0.
532  5.31  0.  0.  0.
533  5.32  0.  0.  0.
534  5.33  0.  0.  0.
535  5.34  0.  0.  0.
536  5.35  0.  0.  0.
537  5.36  0.  0.  0.
538  5.37  0.  0.  0.
539  5.38  0.  0.  0.
540  5.39  0.  0.  0.
541  5.40  0.  0.  0.
542  5.41  0.  0.  0.
543  5.42  0.  0.  0.
544  5.43  0.  0.  0.
545  5.44  0.  0.  0.
546  5.45  0.  0.  0.
547  5.46  0.  0.  0.
548  5.47  0.  0.  0.
549  5.48  0.  0.  0.
550  5.49  0.  0.  0.
551  5.50  0.  0.  0.
552  5.51  0.  0.  0.
553  5.52  0.  0.  0.
554  5.53  0.  0.  0.
555  5.54  0.  0.  0.
556  5.55  0.  0.  0.
557  5.56  0.  0.  0.
558  5.57  0.  0.  0.
559  5.58  0.  0.  0.
560  5.59  0.  0.  0.
561  5.60  0.  0.  0.
562  5.61  0.  0.  0.
563  5.62  0.  0.  0.
564  5.63  0.  0.  0.
565  5.64  0.  0.  0.
566  5.65  0.  0.  0.
567  5.66  0.  0.  0.
568  5.67  0.  0.  0.
569  5.68  0.  0.  0.
570  5.69  0.  0.  0.
571  5.70  0.  0.  0.
572  5.71  0.  0.  0.
573  5.72  0.  0.  0.
574  5.73  0.  0.  0.
575  5.74  0.  0.  0.
576  5.75  0.  0.  0.
577  5.76  0.  0.  0.
578  5.77  0.  0.  0.
579  5.78  0.  0.  0.
580  5.79  0.  0.  0.
581  5.80  0.  0.  0.
582  5.81  0.  0.  0.
583  5.82  0.  0.  0.
584  5.83  0.  0.  0.
585  5.84  0.  0.  0.
586  5.85  0.  0.  0.
587  5.86  0.  0.  0.
588  5.87  0.  0.  0.
589  5.88  0.  0.  0.
590  5.89  0.  0.  0.
591  5.90  0.  0.  0.
592  5.91  0.  0.  0.
593  5.92  0.  0.  0.
594  5.93  0.  0.  0.
595  5.94  0.  0.  0.
596  5.95  0.  0.  0.
597  5.96  0.  0.  0.
598  5.97  0.  0.  0.
599  5.98  0.  0.  0.
600  5.99  0.  0.  0.
1                         9.1805804836755E+00 -4.6972491228692E-01 -2.0330057278828E-01  2.0912444886230E-02
1  0.0000000000000E+00 -1.0102824132829E-10 -7.4941995185929E-08 -1.8179687663426E-07  3.1151033508259E-07
2  1.0000000000000E-02  4.6950565016127E-03  6.7042432255591E-04 -2.4095581925623E-04  1.0358686033497E-02
3  2.0000000000000E-02  1.8737306073048E-02  2.6977347215688E-03 -9.0514812347228E-04  4.1168107574504E-02
4  3.0000000000000E-02  4.1998294197570E-02  6.1288794870460E-03 -1.8196557004619E-03  9.1635371994511E-02
5  4.0000000000000E-02  7.4264949220158E-02  1.1038280949972E-02 -2.7064939460478E-03  1.6046217310514E-01
6  5.0000000000000E-02  1.1524111653338E-01  1.7522289102358E-02 -3.1974908580515E-03  2.4587884012111E-01
7  6.0000000000000E-02  1.6454971646328E-01  2.5691790068582E-02 -2.8542314770350E-03  3.4569058418833E-01
8  7.0000000000000E-02  2.2173553421828E-01  3.5663323813743E-02 -1.1922308319711E-03  4.5733457705779E-01
9  8.0000000000000E-02  2.8626865036485E-01  4.7549140416797E-02  2.2916863478584E-03  5.7794618497529E-01
10  9.0000000000000E-02  3.5754851882788E-01  6.1446680904094E-02  8.0899621599926E-03  7.0443242448235E-01
11  1.0000000000000E-01  4.3490869618903E-01  7.7428004527492E-02  1.6654096352386E-02  8.3355051373108E-01
12  1.1000000000000E-01  5.1762222096909E-01  9.5529697809187E-02  2.8364954432693E-02  9.6198926906052E-01
13  1.2000000000000E-01  6.0490763461499E-01  1.1574379090234E-01  4.3504888914987E-02  1.0864510454739E+00
14  1.3000000000000E-01  6.9593562714988E-01  1.3801017401539E-01  6.2232910423848E-02  1.2037319422703E+00
15  1.4000000000000E-01  7.8983628005957E-01  1.6221095194388E-01  8.4564036356600E-02  1.3107980898334E+00
16  1.5000000000000E-01  8.8570686724407E-01  1.8816710017863E-01  1.1035378996893E-01  1.4048559963698E+00
17  1.6000000000000E-01  9.8262016210351E-01  2.1563769447398E-01  1.3928862797559E-01  1.4834151577829E+00
18  1.7000000000000E-01  1.0796331854653E+00  2.4432188075186E-01  1.7088284751625E-01  1.5443414113426E+00
19  1.8000000000000E-01  1.1757963155618E+00  2.7386363795633E-01  2.0448227240749E-01  1.5858998340405E+00
20  1.9000000000000E-01  1.2701626681363E+00  3.0385926756109E-01  2.3927475374009E-01  1.6067863378051E+00
21  2.0000000000000E-01  1.3617976425121E+00  3.3386742471049E-01  2.7430725144132E-01  1.6061474834075E+00
22  2.1000000000000E-01  1.4497885186195E+00  3.6342139234520E-01  3.0850900196179E-01  1.5835884097556E+00
23  2.2000000000000E-01  1.5332539810286E+00  3.9204319588428E-01  3.4072003311041E-01  1.5391691421699E+00
24  2.3000000000000E-01  1.6113534394365E+00  4.1925906653426E-01  3.6972406997803E-01  1.4733898894685E+00
25  2.4000000000000E-01  1.6832960111829E+00  4.4461568998337E-01  3.9428469458570E-01  1.3871662535042E+00
26  2.5000000000000E-01  1.7483490305210E+00  4.6769662735048E-01  4.1318348374106E-01  1.2817955458257E+00
27  2.6000000000000E-01  1.8058459517670E+00  4.8813826920969E-01  4.2525876030118E-01  1.1589156257691E+00
28  2.7000000000000E-01  1.8551935191870E+00  5.0564468279538E-01  4.2944355645299E-01  1.0204578359668E+00
29  2.8000000000000E-01  1.8958780855426E+00  5.2000073759961E-01  4.2480140549379E-01  8.6859571076636E-01
30  2.9000000000000E-01  1.9274709734896E+00  5.3108294496547E-01  4.1055865054506E-01  7.0569116857004E-01
31  3.0000000000000E-01  1.9496327892557E+00  5.3886752138498E-01  3.8613208212893E-01  5.3423987134535E-01
32  3.1000000000000E-01  1.9621166158748E+00  5.4343528048150E-01  3.5115088697254E-01  3.5681734666388E-01
33  3.2000000000000E-01  1.9647700332719E+00  5.4497307164896E-01  3.0547210126980E-01  1.7602732505062E-01
34  3.3000000000000E-01  1.9575359341495E+00  5.4377160982166E-01  2.4918900474930E-01 -5.5464443150701E-03
35  3.4000000000000E-01  1.9404521273286E+00  5.4021967603245E-01  1.8263215773883E-01 -1.8538386413560E-01
36  3.5000000000000E-01  1.9136497432912E+00  5.3479480702820E-01  1.0636306147047E-01 -3.6106686525010E-01
37  3.6000000000000E-01  1.8773504795109E+00  5.2805072877036E-01  2.1160701048892E-02 -5.3031197868192E-01
38  3.7000000000000E-01  1.8318627450597E+00  5.2060191766678E-01 -7.1998500401579E-02 -6.9099686785988E-01
39  3.8000000000000E-01  1.7775767843174E+00  5.1310578958669E-01 -1.7196653978165E-01 -8.4118085146969E-01
40  3.9000000000000E-01  1.7149588777898E+00  5.0624311525768E-01 -2.7745451060348E-01 -9.7911969387882E-01
41  4.0000000000000E-01  1.6445447335420E+00  5.0069733732144E-01 -3.8706692747910E-01 -1.1032751566227E+00
42  4.1000000000000E-01  1.5669321951496E+00  4.9713351573675E-01 -4.9933839826514E-01 -1.2123199821960E+00
43  4.2000000000000E-01  1.4827734010379E+00  4.9617765192974E-01 -6.1277126687460E-01 -1.3051391133461E+00
44  4.3000000000000E-01  1.3927665354130E+00  4.9839713674887E-01 -7.2587282922412E-01 -1.3808280323508E+00
45  4.4000000000000E-01  1.2976473126213E+00  5.0428303268729E-01 -8.3719076147757E-01 -1.4386891329092E+00
46  4.5000000000000E-01  1.1981803347465E+00  5.1423483796202E-01 -9.4534549235864E-01 -1.4782270122404E+00
47  4.6000000000000E-01  1.0951504567629E+00  5.2854829103070E-01 -1.0490583961565E+00 -1.4991434952587E+00
48  4.7000000000000E-01  9.8935428489972E-01  5.4740666220674E-01 -1.1471748742634E+00 -1.5013330811119E+00
49  4.8000000000000E-01  8.8159192245257E-01  5.7087584841138E-01 -1.2386816227709E+00 -1.4848793419534E+00
50  4.9000000000000E-01  7.7265906360656E-01  5.9890344280028E-01 -1.3227176422391E+00 -1.4500526134816E+00
51  5.0000000000000E-01  6.6333952048248E-01  6.3132179867729E-01 -1.3985788223460E+00 -1.3973091068705E+00
52  5.1000000000000E-01  5.5439825220759E-01  6.6785495281629E-01 -1.4657162169703E+00 -1.3272913536645E+00
53  5.2000000000000E-01  4.4657494799054E-01  7.0812912327548E-01 -1.5237284022015E+00 -1.2408296809071E+00
54  5.3000000000000E-01  3.4057819958553E-01  7.5168635713388E-01 -1.5723485688100E+00 -1.1389442150995E+00
55  5.4000000000000E-01  2.3708028277480E-01  7.9800078008953E-01 -1.6114272304493E+00 -1.0228467418354E+00
56  5.5000000000000E-01  1.3671255313511E-01  8.4649679772440E-01 -1.6409116190811E+00 -8.9394161329420E-01
57  5.6000000000000E-01  4.0061448857693E-02  8.9656852183448E-01 -1.6608229811450E+00 -7.5382480676530E-01
58  5.7000000000000E-01 -5.2334916860315E-02  9.4759964791271E-01 -1.6712330751969E+00 -6.0428020051140E-01
59  5.8000000000000E-01 -1.3998959908108E-01  9.9898299385531E-01 -1.6722411997318E+00 -4.4727215269523E-01
60  5.9000000000000E-01 -2.2246913037783E-01  1.0501389261674E+00 -1.6639530468806E+00 -2.8493354622805E-01
61  6.0000000000000E-01 -2.9939532885548E-01  1.1005319479685E+00 -1.6464625844210E+00 -1.1954859597459E-01
62  6.1000000000000E-01 -3.7044663764656E-01  1.1496848012044E+00 -1.6198380185608E+00  4.6470099382799E-02
63  6.2000000000000E-01 -4.3535902623177E-01  1.1971895406552E+00 -1.5841126892319E+00  2.1061054709923E-01
64  6.3000000000000E-01 -4.9392647965246E-01  1.2427151653980E+00 -1.5392815065408E+00  3.7029641032596E-01
65  6.4000000000000E-01 -5.4600109592765E-01  1.2860115391643E+00 -1.4853032618796E+00  5.2292784417680E-01
66  6.5000000000000E-01 -5.9149280528379E-01  1.3269094885314E+00 -1.4221088519589E+00  6.6592753911581E-01
67  6.6000000000000E-01 -6.3036871772292E-01  1.3653171305595E+00 -1.3496151516879E+00  7.9679109023287E-01
68  6.7000000000000E-01 -6.6265209858494E-01  1.4012126425230E+00 -1.2677439759631E+00  9.1314052489268E-01
69  6.8000000000000E-01 -6.8842096568318E-01  1.4346338389229E+00 -1.1764452945568E+00  1.0127795661306E+00
70  6.9000000000000E-01 -7.0780629685241E-01  1.4656650585277E+00 -1.0757236212706E+00  1.0937489985699E+00
71  7.0000000000000E-01 -7.2098983382098E-01  1.4944219807689E+00 -9.6566630003548E-01  1.1543803496779E+00
72  7.1000000000000E-01 -7.2820146758915E-01  1.5210350813501E+00 -8.4647226655044E-01  1.1933460119135E+00
73  7.2000000000000E-01 -7.2971619223549E-01  1.5456324973495E+00 -7.1847978207044E-01  1.2097039182326E+00
74  7.3000000000000E-01 -7.2585061842541E-01  1.5683230996569E+00 -5.8219162111229E-01  1.2029349490088E+00
75  7.4000000000000E-01 -7.1695904486056E-01  1.5891805639119E+00 -4.3829624931773E-01  1.1729713938564E+00
76  7.5000000000000E-01 -7.0342909534209E-01  1.6082291903251E+00 -2.8768365058731E-01  1.1202150147977E+00
77  7.6000000000000E-01 -6.8567694073428E-01  1.6254321494988E+00 -1.3145464988237E-01  1.0455435518620E+00
78  7.7000000000000E-01 -6.6414213848299E-01  1.6406827287109E+00  2.9077177242213E-02  9.5030486924378E-01
79  7.8000000000000E-01 -6.3928213691641E-01  1.6537990255524E+00  1.9239162508781E-01  8.3629834713742E-01
80  7.9000000000000E-01 -6.1156650668509E-01  1.6645223889603E+00  3.5677629742303E-01  7.0574356609294E-01
81  8.0000000000000E-01 -5.8147097665278E-01  1.6725197482492E+00  5.2034930695955E-01  5.6123678959456E-01
82  8.1000000000000E-01 -5.4947136555135E-01  1.6773898060938E+00  6.8108982176133E-01  4.0569620736480E-01