Md    ONCVPSP-4.0.1  r_core=   1.10635   1.10635   1.00536   1.10635
101.0000     41.0000      230613    zatom,zion,pspd
8      11   3     4   600     0    pspcod,pspxc,lmax,lloc,mmax,r2well
5.99000000  2.70000000  0.00000000    rchrg fchrg qchrg
3     2     2     2     0    nproj
1     1           extension_switch
0                         2.9039169760271E+01  3.9146342848482E+00 -6.1308871304896E-01
1  0.0000000000000E+00 -5.5145021660152E-08  1.7584414235827E-07  1.1537308530762E-07
2  1.0000000000000E-02  1.6308293484211E-01 -5.3407917904001E-02  1.7948009527065E-02
3  2.0000000000000E-02  3.2498961657695E-01 -1.0542021461905E-01  3.6272306937363E-02
4  3.0000000000000E-02  4.8455874826382E-01 -1.5467622241380E-01  5.5329500191113E-02
5  4.0000000000000E-02  6.4065854787802E-01 -1.9988396075319E-01  7.5437650842293E-02
6  5.0000000000000E-02  7.9220052757271E-01 -2.3985147947410E-01  9.6859002573306E-02
7  6.0000000000000E-02  9.3815214143709E-01 -2.7351473628786E-01  1.1978502383868E-01
8  7.0000000000000E-02  1.0775479932417E+00 -2.9996107214815E-01  1.4432439301912E-01
9  8.0000000000000E-02  1.2094993508070E+00 -3.1844752386709E-01  1.7049443911427E-01
10  9.0000000000000E-02  1.3332017781143E+00 -3.2841341915461E-01  1.9821641541925E-01
11  1.0000000000000E-01  1.4479407674096E+00 -3.2948692650549E-01  2.2731483310003E-01
12  1.1000000000000E-01  1.5530953283601E+00 -3.2148547169540E-01  2.5752092194156E-01
13  1.2000000000000E-01  1.6481395666977E+00 -3.0441017419091E-01  2.8848012299050E-01
14  1.3000000000000E-01  1.7326423575719E+00 -2.7843469056883E-01  3.1976335865380E-01
15  1.4000000000000E-01  1.8062652860097E+00 -2.4388906842161E-01  3.5088167622846E-01
16  1.5000000000000E-01  1.8687590856505E+00 -2.0123940427724E-01  3.8130372662673E-01
17  1.6000000000000E-01  1.9199588548415E+00 -1.5106425493743E-01  4.1047542644203E-01
18  1.7000000000000E-01  1.9597783642775E+00 -9.4028866923951E-02  4.3784106287798E-01
19  1.8000000000000E-01  1.9882037912000E+00 -3.0858358677520E-02  4.6286504088459E-01
20  1.9000000000000E-01  2.0052872209244E+00  3.7688988061304E-02  4.8505344244047E-01
21  2.0000000000000E-01  2.0111402469380E+00  1.1084719849377E-01  5.0397457043947E-01
22  2.1000000000000E-01  2.0059279764936E+00  1.8786578245857E-01  5.1927768397672E-01
23  2.2000000000000E-01  1.9898637106088E+00  2.6802968503041E-01  5.3070919666038E-01
24  2.3000000000000E-01  1.9632045173820E+00  3.5067523456909E-01  5.3812570237634E-01
25  2.4000000000000E-01  1.9262478577640E+00  4.3520150459838E-01  5.4150331011348E-01
26  2.5000000000000E-01  1.8793293560452E+00  5.2107672229072E-01  5.4094290646775E-01
27  2.6000000000000E-01  1.8228217363040E+00  6.0783958809145E-01  5.3667111598262E-01
28  2.7000000000000E-01  1.7571348740850E+00  6.9509560824006E-01  5.2903688968306E-01
29  2.8000000000000E-01  1.6827168428700E+00  7.8250877449940E-01  5.1850381483888E-01
30  2.9000000000000E-01  1.6000557706314E+00  8.6978914328176E-01  5.0563839786817E-01
31  3.0000000000000E-01  1.5096822658588E+00  9.5667706018057E-01  4.9109472126667E-01
32  3.1000000000000E-01  1.4121721275439E+00  1.0429249372304E+00  4.7559600880337E-01
33  3.2000000000000E-01  1.3081490218362E+00  1.1282776119625E+00  4.5991374589193E-01
34  3.3000000000000E-01  1.1982867910734E+00  1.2124523940374E+00  4.4484508976382E-01
35  3.4000000000000E-01  1.0833110596074E+00  1.2951199333727E+00  4.3118936357860E-01
36  3.5000000000000E-01  9.6399981562804E-01  1.3758870217128E+00  4.1972445775526E-01
37  3.6000000000000E-01  8.4118267864612E-01  1.4542823681046E+00  4.1118395965439E-01
38  3.7000000000000E-01  7.1573860739170E-01  1.5297462704443E+00  4.0623579956129E-01
39  3.8000000000000E-01  5.8859186091945E-01  1.6016249448330E+00  4.0546313821757E-01
40  3.9000000000000E-01  4.6070609442149E-01  1.6691700784289E+00  4.0934813157633E-01
41  4.0000000000000E-01  3.3307654788391E-01  1.7315439478551E+00  4.1825909569768E-01
42  4.1000000000000E-01  2.0672036715480E-01  1.7878302032868E+00  4.3244146335015E-01
43  4.2000000000000E-01  8.2665179861311E-02  1.8370501681779E+00  4.5201277920635E-01
44  4.3000000000000E-01 -3.8063870557016E-02  1.8781842567112E+00  4.7696182830014E-01
45  4.4000000000000E-01 -1.5445835406797E-01  1.9101978759374E+00  5.0715183865921E-01
46  4.5000000000000E-01 -2.6554170123189E-01  1.9320709671934E+00  5.4232754977011E-01
47  4.6000000000000E-01 -3.7038486803942E-01  1.9428301608855E+00  5.8212579957377E-01
48  4.7000000000000E-01 -4.6812207715879E-01  1.9415823778867E+00  6.2608915934755E-01
49  4.8000000000000E-01 -5.5796616943411E-01  1.9275486158595E+00  6.7368204276435E-01
50  4.9000000000000E-01 -6.3922309184895E-01  1.9000966140816E+00  7.2430863641369E-01
51  5.0000000000000E-01 -7.1130505840960E-01  1.8587710980966E+00  7.7733194690988E-01
52  5.1000000000000E-01 -7.7374194836672E-01  1.8033203658043E+00  8.3209323606676E-01
53  5.2000000000000E-01 -8.2619055101585E-01  1.7337180873814E+00  8.8793112099060E-01
54  5.3000000000000E-01 -8.6844132644043E-01  1.6501793484692E+00  9.4419964964857E-01
55  5.4000000000000E-01 -9.0042242480739E-01  1.5531701633139E+00  1.0002847226979E+00
56  5.5000000000000E-01 -9.2220079047522E-01  1.4434099142042E+00  1.0556183162345E+00
57  5.6000000000000E-01 -9.3398026808431E-01  1.3218664265351E+00  1.1096900638448E+00
58  5.7000000000000E-01 -9.3609672252796E-01  1.1897436550549E+00  1.1620558753685E+00
59  5.8000000000000E-01 -9.2901027965793E-01  1.0484622257476E+00  1.2123433989858E+00
60  5.9000000000000E-01 -9.1329488615605E-01  8.9963333865649E-01  1.2602542671763E+00
61  6.0000000000000E-01 -8.8962547174619E-01  7.4502677943571E-01  1.3055632001805E+00
62  6.1000000000000E-01 -8.5876307165109E-01  5.8653400197323E-01  1.3481141673816E+00
63  6.2000000000000E-01 -8.2153832915085E-01  4.2612742266961E-01  1.3878139223987E+00
64  6.3000000000000E-01 -7.7883384503007E-01  2.6581720202168E-01  1.4246233270875E+00
65  6.4000000000000E-01 -7.3156587097338E-01  1.0760687596399E-01  1.4585469592431E+00
66  6.5000000000000E-01 -6.8066585661924E-01 -4.6550765132159E-02  1.4896215556553E+00
67  6.6000000000000E-01 -6.2706235474482E-01 -1.9479616882289E-01  1.5179038743061E+00
68  6.7000000000000E-01 -5.7166376636761E-01 -3.3540257152792E-01  1.5434585660284E+00
69  6.8000000000000E-01 -5.1534236852827E-01 -4.6681141156431E-01  1.5663466270348E+00
70  6.9000000000000E-01 -4.5892001389136E-01 -5.8766256724092E-01  1.5866149606022E+00
71  7.0000000000000E-01 -4.0315582533931E-01 -6.9681857886284E-01  1.6042875110823E+00
72  7.1000000000000E-01 -3.4873613313617E-01 -7.9338223784745E-01  1.6193583493907E+00
73  7.2000000000000E-01 -2.9626682003037E-01 -8.7670716993639E-01  1.6317869900579E+00
74  7.3000000000000E-01 -2.4626815403859E-01 -9.4640129314406E-01  1.6414961102009E+00
75  7.4000000000000E-01 -1.9917210288189E-01 -1.0023232847331E+00  1.6483717252270E+00
76  7.5000000000000E-01 -1.5532204129554E-01 -1.0445724355669E+00  1.6522657596887E+00
77  7.6000000000000E-01 -1.1497468568995E-01 -1.0734724955535E+00  1.6530008394903E+00
78  7.7000000000000E-01 -7.8304022570169E-02 -1.0895503123957E+00  1.6503770284251E+00
79  7.8000000000000E-01 -4.5406939989220E-02 -1.0935102304864E+00  1.6441801422546E+00
80  7.9000000000000E-01 -1.6310226907902E-02 -1.0862053419478E+00  1.6341912011982E+00
81  8.0000000000000E-01  9.0214250473024E-03 -1.0686067634007E+00  1.6201965301390E+00
82  8.1000000000000E-01  3.0676798552832E-02 -1.0417721476039E+00  1.6019979877148E+00
83  8.2000000000000E-01  4.8789288015964E-02 -1.0068146277004E+00  1.5794228026682E+00
84  8.3000000000000E-01  6.3528165044328E-02 -9.6487333400901E-01  1.5523325195514E+00
85  8.4000000000000E-01  7.5090311290854E-02 -9.1708652095638E-01  1.5206306065573E+00
86  8.5000000000000E-01  8.3692716665371E-02 -8.6456819777820E-01  1.4842683557017E+00
87  8.6000000000000E-01  8.9565987706538E-02 -8.0838897471435E-01  1.4432488090555E+00
88  8.7000000000000E-01  9.2949047226822E-02 -7.4956162072213E-01  1.3976285730500E+00
89  8.8000000000000E-01  9.4085133562725E-02 -6.8903158347853E-01  1.3475175345893E+00
90  8.9000000000000E-01  9.3219127164404E-02 -6.2767245163656E-01  1.2930766661946E+00
91  9.0000000000000E-01  9.0596144909842E-02 -5.6628604635879E-01  1.2345143010868E+00
92  9.1000000000000E-01  8.6461249178265E-02 -5.0560651659938E-01  1.1720814715546E+00
93  9.2000000000000E-01  8.1060019705998E-02 -4.4630748179606E-01  1.1060671340252E+00
94  9.3000000000000E-01  7.4639631438558E-02 -3.8901091653605E-01  1.0367943512485E+00
95  9.4000000000000E-01  6.7449970313536E-02 -3.3429610278120E-01  9.6461876572303E-01
96  9.5000000000000E-01  5.9744199913959E-02 -2.8270658309746E-01  8.8993097936221E-01
97  9.6000000000000E-01  5.1778063448376E-02 -2.3475262820472E-01  8.1316475336386E-01
98  9.7000000000000E-01  4.3807065078475E-02 -1.9090627714066E-01  7.3481326118636E-01
99  9.8000000000000E-01  3.6080519417427E-02 -1.5158551052467E-01  6.5545596854338E-01
100  9.9000000000000E-01  2.8831283610475E-02 -1.1712356290509E-01  5.7579908716173E-01
101  1.0000000000000E+00  2.2259805949461E-02 -8.7718828469053E-02  4.9673283500774E-01
102  1.0100000000000E+00  1.6510945561301E-02 -6.3360298283924E-02  4.1940886892038E-01
103  1.0200000000000E+00  1.1657215297852E-02 -4.3785732530065E-02  3.4523699908765E-01
104  1.0300000000000E+00  7.7216596521987E-03 -2.8600645140389E-02  2.7562156949541E-01
105  1.0400000000000E+00  4.6908447064333E-03 -1.7345004800884E-02  2.1183668850463E-01
106  1.0500000000000E+00  2.5157899193332E-03 -9.5059424771249E-03  1.5500793988163E-01
107  1.0600000000000E+00  1.0646625121535E-03 -4.3918995842330E-03  1.0604841001941E-01
108  1.0700000000000E+00  2.0106308612889E-04 -1.3572950308770E-03  6.5714830056972E-02
109  1.0800000000000E+00 -1.6257775844510E-04  3.3027695041397E-05  3.4665947656108E-02
110  1.0900000000000E+00 -1.7660204401991E-04  3.1351355927595E-04  1.3355477799322E-02
111  1.1000000000000E+00 -4.5400119319853E-05  9.4515392956201E-05  2.0144132372290E-03
112  1.1100000000000E+00  2.8372006827274E-06 -6.1903069122898E-06 -9.4387973725587E-05
113  1.1200000000000E+00  2.4172580424604E-08 -5.0374866066737E-08 -1.0753343270034E-06
114  1.13 -0.  0. -0.
115  1.14  0.  0.  0.
116  1.15  0.  0.  0.
117  1.16  0.  0.  0.
118  1.17  0.  0.  0.
119  1.18  0.  0.  0.
120  1.19  0.  0.  0.
121  1.20  0.  0.  0.
122  1.21  0.  0.  0.
123  1.22  0.  0.  0.
124  1.23  0.  0.  0.
125  1.24  0.  0.  0.
126  1.25  0.  0.  0.
127  1.26  0.  0.  0.
128  1.27  0.  0.  0.
129  1.28  0.  0.  0.
130  1.29  0.  0.  0.
131  1.30  0.  0.  0.
132  1.31  0.  0.  0.
133  1.32  0.  0.  0.
134  1.33  0.  0.  0.
135  1.34  0.  0.  0.
136  1.35  0.  0.  0.
137  1.36  0.  0.  0.
138  1.37  0.  0.  0.
139  1.38  0.  0.  0.
140  1.39  0.  0.  0.
141  1.40  0.  0.  0.
142  1.41  0.  0.  0.
143  1.42  0.  0.  0.
144  1.43  0.  0.  0.
145  1.44  0.  0.  0.
146  1.45  0.  0.  0.
147  1.46  0.  0.  0.
148  1.47  0.  0.  0.
149  1.48  0.  0.  0.
150  1.49  0.  0.  0.
151  1.50  0.  0.  0.
152  1.51  0.  0.  0.
153  1.52  0.  0.  0.
154  1.53  0.  0.  0.
155  1.54  0.  0.  0.
156  1.55  0.  0.  0.
157  1.56  0.  0.  0.
158  1.57  0.  0.  0.
159  1.58  0.  0.  0.
160  1.59  0.  0.  0.
161  1.60  0.  0.  0.
162  1.61  0.  0.  0.
163  1.62  0.  0.  0.
164  1.63  0.  0.  0.
165  1.64  0.  0.  0.
166  1.65  0.  0.  0.
167  1.66  0.  0.  0.
168  1.67  0.  0.  0.
169  1.68  0.  0.  0.
170  1.69  0.  0.  0.
171  1.70  0.  0.  0.
172  1.71  0.  0.  0.
173  1.72  0.  0.  0.
174  1.73  0.  0.  0.
175  1.74  0.  0.  0.
176  1.75  0.  0.  0.
177  1.76  0.  0.  0.
178  1.77  0.  0.  0.
179  1.78  0.  0.  0.
180  1.79  0.  0.  0.
181  1.80  0.  0.  0.
182  1.81  0.  0.  0.
183  1.82  0.  0.  0.
184  1.83  0.  0.  0.
185  1.84  0.  0.  0.
186  1.85  0.  0.  0.
187  1.86  0.  0.  0.
188  1.87  0.  0.  0.
189  1.88  0.  0.  0.
190  1.89  0.  0.  0.
191  1.90  0.  0.  0.
192  1.91  0.  0.  0.
193  1.92  0.  0.  0.
194  1.93  0.  0.  0.
195  1.94  0.  0.  0.
196  1.95  0.  0.  0.
197  1.96  0.  0.  0.
198  1.97  0.  0.  0.
199  1.98  0.  0.  0.
200  1.99  0.  0.  0.
201  2.00  0.  0.  0.
202  2.01  0.  0.  0.
203  2.02  0.  0.  0.
204  2.03  0.  0.  0.
205  2.04  0.  0.  0.
206  2.05  0.  0.  0.
207  2.06  0.  0.  0.
208  2.07  0.  0.  0.
209  2.08  0.  0.  0.
210  2.09  0.  0.  0.
211  2.10  0.  0.  0.
212  2.11  0.  0.  0.
213  2.12  0.  0.  0.
214  2.13  0.  0.  0.
215  2.14  0.  0.  0.
216  2.15  0.  0.  0.
217  2.16  0.  0.  0.
218  2.17  0.  0.  0.
219  2.18  0.  0.  0.
220  2.19  0.  0.  0.
221  2.20  0.  0.  0.
222  2.21  0.  0.  0.
223  2.22  0.  0.  0.
224  2.23  0.  0.  0.
225  2.24  0.  0.  0.
226  2.25  0.  0.  0.
227  2.26  0.  0.  0.
228  2.27  0.  0.  0.
229  2.28  0.  0.  0.
230  2.29  0.  0.  0.
231  2.30  0.  0.  0.
232  2.31  0.  0.  0.
233  2.32  0.  0.  0.
234  2.33  0.  0.  0.
235  2.34  0.  0.  0.
236  2.35  0.  0.  0.
237  2.36  0.  0.  0.
238  2.37  0.  0.  0.
239  2.38  0.  0.  0.
240  2.39  0.  0.  0.
241  2.40  0.  0.  0.
242  2.41  0.  0.  0.
243  2.42  0.  0.  0.
244  2.43  0.  0.  0.
245  2.44  0.  0.  0.
246  2.45  0.  0.  0.
247  2.46  0.  0.  0.
248  2.47  0.  0.  0.
249  2.48  0.  0.  0.
250  2.49  0.  0.  0.
251  2.50  0.  0.  0.
252  2.51  0.  0.  0.
253  2.52  0.  0.  0.
254  2.53  0.  0.  0.
255  2.54  0.  0.  0.
256  2.55  0.  0.  0.
257  2.56  0.  0.  0.
258  2.57  0.  0.  0.
259  2.58  0.  0.  0.
260  2.59  0.  0.  0.
261  2.60  0.  0.  0.
262  2.61  0.  0.  0.
263  2.62  0.  0.  0.
264  2.63  0.  0.  0.
265  2.64  0.  0.  0.
266  2.65  0.  0.  0.
267  2.66  0.  0.  0.
268  2.67  0.  0.  0.
269  2.68  0.  0.  0.
270  2.69  0.  0.  0.
271  2.70  0.  0.  0.
272  2.71  0.  0.  0.
273  2.72  0.  0.  0.
274  2.73  0.  0.  0.
275  2.74  0.  0.  0.
276  2.75  0.  0.  0.
277  2.76  0.  0.  0.
278  2.77  0.  0.  0.
279  2.78  0.  0.  0.
280  2.79  0.  0.  0.
281  2.80  0.  0.  0.
282  2.81  0.  0.  0.
283  2.82  0.  0.  0.
284  2.83  0.  0.  0.
285  2.84  0.  0.  0.
286  2.85  0.  0.  0.
287  2.86  0.  0.  0.
288  2.87  0.  0.  0.
289  2.88  0.  0.  0.
290  2.89  0.  0.  0.
291  2.90  0.  0.  0.
292  2.91  0.  0.  0.
293  2.92  0.  0.  0.
294  2.93  0.  0.  0.
295  2.94  0.  0.  0.
296  2.95  0.  0.  0.
297  2.96  0.  0.  0.
298  2.97  0.  0.  0.
299  2.98  0.  0.  0.
300  2.99  0.  0.  0.
301  3.00  0.  0.  0.
302  3.01  0.  0.  0.
303  3.02  0.  0.  0.
304  3.03  0.  0.  0.
305  3.04  0.  0.  0.
306  3.05  0.  0.  0.
307  3.06  0.  0.  0.
308  3.07  0.  0.  0.
309  3.08  0.  0.  0.
310  3.09  0.  0.  0.
311  3.10  0.  0.  0.
312  3.11  0.  0.  0.
313  3.12  0.  0.  0.
314  3.13  0.  0.  0.
315  3.14  0.  0.  0.
316  3.15  0.  0.  0.
317  3.16  0.  0.  0.
318  3.17  0.  0.  0.
319  3.18  0.  0.  0.
320  3.19  0.  0.  0.
321  3.20  0.  0.  0.
322  3.21  0.  0.  0.
323  3.22  0.  0.  0.
324  3.23  0.  0.  0.
325  3.24  0.  0.  0.
326  3.25  0.  0.  0.
327  3.26  0.  0.  0.
328  3.27  0.  0.  0.
329  3.28  0.  0.  0.
330  3.29  0.  0.  0.
331  3.30  0.  0.  0.
332  3.31  0.  0.  0.
333  3.32  0.  0.  0.
334  3.33  0.  0.  0.
335  3.34  0.  0.  0.
336  3.35  0.  0.  0.
337  3.36  0.  0.  0.
338  3.37  0.  0.  0.
339  3.38  0.  0.  0.
340  3.39  0.  0.  0.
341  3.40  0.  0.  0.
342  3.41  0.  0.  0.
343  3.42  0.  0.  0.
344  3.43  0.  0.  0.
345  3.44  0.  0.  0.
346  3.45  0.  0.  0.
347  3.46  0.  0.  0.
348  3.47  0.  0.  0.
349  3.48  0.  0.  0.
350  3.49  0.  0.  0.
351  3.50  0.  0.  0.
352  3.51  0.  0.  0.
353  3.52  0.  0.  0.
354  3.53  0.  0.  0.
355  3.54  0.  0.  0.
356  3.55  0.  0.  0.
357  3.56  0.  0.  0.
358  3.57  0.  0.  0.
359  3.58  0.  0.  0.
360  3.59  0.  0.  0.
361  3.60  0.  0.  0.
362  3.61  0.  0.  0.
363  3.62  0.  0.  0.
364  3.63  0.  0.  0.
365  3.64  0.  0.  0.
366  3.65  0.  0.  0.
367  3.66  0.  0.  0.
368  3.67  0.  0.  0.
369  3.68  0.  0.  0.
370  3.69  0.  0.  0.
371  3.70  0.  0.  0.
372  3.71  0.  0.  0.
373  3.72  0.  0.  0.
374  3.73  0.  0.  0.
375  3.74  0.  0.  0.
376  3.75  0.  0.  0.
377  3.76  0.  0.  0.
378  3.77  0.  0.  0.
379  3.78  0.  0.  0.
380  3.79  0.  0.  0.
381  3.80  0.  0.  0.
382  3.81  0.  0.  0.
383  3.82  0.  0.  0.
384  3.83  0.  0.  0.
385  3.84  0.  0.  0.
386  3.85  0.  0.  0.
387  3.86  0.  0.  0.
388  3.87  0.  0.  0.
389  3.88  0.  0.  0.
390  3.89  0.  0.  0.
391  3.90  0.  0.  0.
392  3.91  0.  0.  0.
393  3.92  0.  0.  0.
394  3.93  0.  0.  0.
395  3.94  0.  0.  0.
396  3.95  0.  0.  0.
397  3.96  0.  0.  0.
398  3.97  0.  0.  0.
399  3.98  0.  0.  0.
400  3.99  0.  0.  0.
401  4.00  0.  0.  0.
402  4.01  0.  0.  0.
403  4.02  0.  0.  0.
404  4.03  0.  0.  0.
405  4.04  0.  0.  0.
406  4.05  0.  0.  0.
407  4.06  0.  0.  0.
408  4.07  0.  0.  0.
409  4.08  0.  0.  0.
410  4.09  0.  0.  0.
411  4.10  0.  0.  0.
412  4.11  0.  0.  0.
413  4.12  0.  0.  0.
414  4.13  0.  0.  0.
415  4.14  0.  0.  0.
416  4.15  0.  0.  0.
417  4.16  0.  0.  0.
418  4.17  0.  0.  0.
419  4.18  0.  0.  0.
420  4.19  0.  0.  0.
421  4.20  0.  0.  0.
422  4.21  0.  0.  0.
423  4.22  0.  0.  0.
424  4.23  0.  0.  0.
425  4.24  0.  0.  0.
426  4.25  0.  0.  0.
427  4.26  0.  0.  0.
428  4.27  0.  0.  0.
429  4.28  0.  0.  0.
430  4.29  0.  0.  0.
431  4.30  0.  0.  0.
432  4.31  0.  0.  0.
433  4.32  0.  0.  0.
434  4.33  0.  0.  0.
435  4.34  0.  0.  0.
436  4.35  0.  0.  0.
437  4.36  0.  0.  0.
438  4.37  0.  0.  0.
439  4.38  0.  0.  0.
440  4.39  0.  0.  0.
441  4.40  0.  0.  0.
442  4.41  0.  0.  0.
443  4.42  0.  0.  0.
444  4.43  0.  0.  0.
445  4.44  0.  0.  0.
446  4.45  0.  0.  0.
447  4.46  0.  0.  0.
448  4.47  0.  0.  0.
449  4.48  0.  0.  0.
450  4.49  0.  0.  0.
451  4.50  0.  0.  0.
452  4.51  0.  0.  0.
453  4.52  0.  0.  0.
454  4.53  0.  0.  0.
455  4.54  0.  0.  0.
456  4.55  0.  0.  0.
457  4.56  0.  0.  0.
458  4.57  0.  0.  0.
459  4.58  0.  0.  0.
460  4.59  0.  0.  0.
461  4.60  0.  0.  0.
462  4.61  0.  0.  0.
463  4.62  0.  0.  0.
464  4.63  0.  0.  0.
465  4.64  0.  0.  0.
466  4.65  0.  0.  0.
467  4.66  0.  0.  0.
468  4.67  0.  0.  0.
469  4.68  0.  0.  0.
470  4.69  0.  0.  0.
471  4.70  0.  0.  0.
472  4.71  0.  0.  0.
473  4.72  0.  0.  0.
474  4.73  0.  0.  0.
475  4.74  0.  0.  0.
476  4.75  0.  0.  0.
477  4.76  0.  0.  0.
478  4.77  0.  0.  0.
479  4.78  0.  0.  0.
480  4.79  0.  0.  0.
481  4.80  0.  0.  0.
482  4.81  0.  0.  0.
483  4.82  0.  0.  0.
484  4.83  0.  0.  0.
485  4.84  0.  0.  0.
486  4.85  0.  0.  0.
487  4.86  0.  0.  0.
488  4.87  0.  0.  0.
489  4.88  0.  0.  0.
490  4.89  0.  0.  0.
491  4.90  0.  0.  0.
492  4.91  0.  0.  0.
493  4.92  0.  0.  0.
494  4.93  0.  0.  0.
495  4.94  0.  0.  0.
496  4.95  0.  0.  0.
497  4.96  0.  0.  0.
498  4.97  0.  0.  0.
499  4.98  0.  0.  0.
500  4.99  0.  0.  0.
501  5.00  0.  0.  0.
502  5.01  0.  0.  0.
503  5.02  0.  0.  0.
504  5.03  0.  0.  0.
505  5.04  0.  0.  0.
506  5.05  0.  0.  0.
507  5.06  0.  0.  0.
508  5.07  0.  0.  0.
509  5.08  0.  0.  0.
510  5.09  0.  0.  0.
511  5.10  0.  0.  0.
512  5.11  0.  0.  0.
513  5.12  0.  0.  0.
514  5.13  0.  0.  0.
515  5.14  0.  0.  0.
516  5.15  0.  0.  0.
517  5.16  0.  0.  0.
518  5.17  0.  0.  0.
519  5.18  0.  0.  0.
520  5.19  0.  0.  0.
521  5.20  0.  0.  0.
522  5.21  0.  0.  0.
523  5.22  0.  0.  0.
524  5.23  0.  0.  0.
525  5.24  0.  0.  0.
526  5.25  0.  0.  0.
527  5.26  0.  0.  0.
528  5.27  0.  0.  0.
529  5.28  0.  0.  0.
530  5.29  0.  0.  0.
531  5.30  0.  0.  0.
532  5.31  0.  0.  0.
533  5.32  0.  0.  0.
534  5.33  0.  0.  0.
535  5.34  0.  0.  0.
536  5.35  0.  0.  0.
537  5.36  0.  0.  0.
538  5.37  0.  0.  0.
539  5.38  0.  0.  0.
540  5.39  0.  0.  0.
541  5.40  0.  0.  0.
542  5.41  0.  0.  0.
543  5.42  0.  0.  0.
544  5.43  0.  0.  0.
545  5.44  0.  0.  0.
546  5.45  0.  0.  0.
547  5.46  0.  0.  0.
548  5.47  0.  0.  0.
549  5.48  0.  0.  0.
550  5.49  0.  0.  0.
551  5.50  0.  0.  0.
552  5.51  0.  0.  0.
553  5.52  0.  0.  0.
554  5.53  0.  0.  0.
555  5.54  0.  0.  0.
556  5.55  0.  0.  0.
557  5.56  0.  0.  0.
558  5.57  0.  0.  0.
559  5.58  0.  0.  0.
560  5.59  0.  0.  0.
561  5.60  0.  0.  0.
562  5.61  0.  0.  0.
563  5.62  0.  0.  0.
564  5.63  0.  0.  0.
565  5.64  0.  0.  0.
566  5.65  0.  0.  0.
567  5.66  0.  0.  0.
568  5.67  0.  0.  0.
569  5.68  0.  0.  0.
570  5.69  0.  0.  0.
571  5.70  0.  0.  0.
572  5.71  0.  0.  0.
573  5.72  0.  0.  0.
574  5.73  0.  0.  0.
575  5.74  0.  0.  0.
576  5.75  0.  0.  0.
577  5.76  0.  0.  0.
578  5.77  0.  0.  0.
579  5.78  0.  0.  0.
580  5.79  0.  0.  0.
581  5.80  0.  0.  0.
582  5.81  0.  0.  0.
583  5.82  0.  0.  0.
584  5.83  0.  0.  0.
585  5.84  0.  0.  0.
586  5.85  0.  0.  0.
587  5.86  0.  0.  0.
588  5.87  0.  0.  0.
589  5.88  0.  0.  0.
590  5.89  0.  0.  0.
591  5.90  0.  0.  0.
592  5.91  0.  0.  0.
593  5.92  0.  0.  0.
594  5.93  0.  0.  0.
595  5.94  0.  0.  0.
596  5.95  0.  0.  0.
597  5.96  0.  0.  0.
598  5.97  0.  0.  0.
599  5.98  0.  0.  0.
600  5.99  0.  0.  0.
1                         1.0423981434514E+01 -4.2434151287220E-01
1  0.0000000000000E+00 -5.3899122942624E-09 -9.7587016321954E-08
2  1.0000000000000E-02  4.6824129516176E-03  8.6219371123064E-04
3  2.0000000000000E-02  1.8688537767311E-02  3.4680901494453E-03
4  3.0000000000000E-02  4.1895246422090E-02  7.8741256838069E-03
5  4.0000000000000E-02  7.4098044556497E-02  1.4169400856224E-02
6  5.0000000000000E-02  1.1501216845470E-01  2.2468488348251E-02
7  6.0000000000000E-02  1.6427415646577E-01  3.2901849550431E-02
8  7.0000000000000E-02  2.2144392764057E-01  4.5604320528899E-02
9  8.0000000000000E-02  2.8600740574649E-01  6.0702225771040E-02
10  9.0000000000000E-02  3.5737972947095E-01  7.8299752012529E-02
11  1.0000000000000E-01  4.3490908917639E-01  9.8465261448623E-02
12  1.1000000000000E-01  5.1788122680603E-01  1.2121824153967E-01
13  1.2000000000000E-01  6.0552462838991E-01  1.4651757643549E-01
14  1.3000000000000E-01  6.9701642814702E-01  1.7425178298416E-01
15  1.4000000000000E-01  7.9148902965728E-01  2.0423178379705E-01
16  1.5000000000000E-01  8.8803743336661E-01  2.3618669352114E-01
17  1.6000000000000E-01  9.8572724130514E-01  2.6976297600352E-01
18  1.7000000000000E-01  1.0836032899691E+00  3.0452719404325E-01
19  1.8000000000000E-01  1.1806988415645E+00  3.3997242528929E-01
20  1.9000000000000E-01  1.2760452430177E+00  3.7552826349769E-01
21  2.0000000000000E-01  1.3686819421451E+00  4.1057417005910E-01
22  2.1000000000000E-01  1.4576667319653E+00  4.4445579278413E-01
23  2.2000000000000E-01  1.5420860781171E+00  4.7650373354254E-01
24  2.3000000000000E-01  1.6210653714524E+00  5.0605412922585E-01
25  2.4000000000000E-01  1.6937789387390E+00  5.3247031671500E-01
26  2.5000000000000E-01  1.7594596395412E+00  5.5516478628745E-01
27  2.6000000000000E-01  1.8174078771404E+00  5.7362059234747E-01
28  2.7000000000000E-01  1.8669998560012E+00  5.8741138747278E-01
29  2.8000000000000E-01  1.9076949278467E+00  5.9621927621955E-01
30  2.9000000000000E-01  1.9390418827230E+00  5.9984974826537E-01
31  3.0000000000000E-01  1.9606840602054E+00  5.9824304432069E-01
32  3.1000000000000E-01  1.9723631786426E+00  5.9148142956325E-01
33  3.2000000000000E-01  1.9739218064150E+00  5.7979199375505E-01
34  3.3000000000000E-01  1.9653044278358E+00  5.6354475929699E-01
35  3.4000000000000E-01  1.9465570866690E+00  5.4324605208327E-01
36  3.5000000000000E-01  1.9178256213467E+00  5.1952726839146E-01
37  3.6000000000000E-01  1.8793525368334E+00  4.9312934715423E-01
38  3.7000000000000E-01  1.8314725877399E+00  4.6488342374761E-01
39  3.8000000000000E-01  1.7746071747646E+00  4.3568829211744E-01
40  3.9000000000000E-01  1.7092576809626E+00  4.0648543040809E-01
41  4.0000000000000E-01  1.6359978949319E+00  3.7823244582354E-01
42  4.1000000000000E-01  1.5554656841238E+00  3.5187586284748E-01
43  4.2000000000000E-01  1.4683540926420E+00  3.2832421201393E-01
44  4.3000000000000E-01  1.3754020438101E+00  3.0842237237912E-01
45  4.4000000000000E-01  1.2773848283330E+00  2.9292807939310E-01
46  4.5000000000000E-01  1.1751045541702E+00  2.8249143222085E-01
47  4.6000000000000E-01  1.0693807245435E+00  2.7763812340978E-01
48  4.7000000000000E-01  9.6104109631342E-01  2.7875697324463E-01
49  4.8000000000000E-01  8.5091295289780E-01  2.8609218651914E-01
50  4.9000000000000E-01  7.3981490476510E-01  2.9974056718898E-01
51  5.0000000000000E-01  6.2854930719846E-01  3.1965373366722E-01
52  5.1000000000000E-01  5.1789536045502E-01  3.4564518210515E-01
53  5.2000000000000E-01  4.0860293263801E-01  3.7740185481580E-01
54  5.3000000000000E-01  3.0138712154153E-01  4.1449969386348E-01
55  5.4000000000000E-01  1.9692354936026E-01  4.5642250314697E-01
56  5.5000000000000E-01  9.5844364326780E-02  5.0258331266729E-01
57  5.6000000000000E-01 -1.2650932253846E-03  5.5234734168058E-01
58  5.7000000000000E-01 -9.3869015608223E-02  6.0505559737684E-01
59  5.8000000000000E-01 -1.8148330708258E-01  6.6004812539792E-01
60  5.9000000000000E-01 -2.6367728556890E-01  7.1668594908121E-01
61  6.0000000000000E-01 -3.4007497432597E-01  7.7437079525316E-01
62  6.1000000000000E-01 -4.1035604669883E-01  8.3256180346594E-01
63  6.2000000000000E-01 -4.7425647882867E-01  8.9078854889411E-01
64  6.3000000000000E-01 -5.3156895385787E-01  9.4865987133068E-01
65  6.4000000000000E-01 -5.8214304740401E-01  1.0058681871891E+00
66  6.5000000000000E-01 -6.2588520878528E-01  1.0621891604685E+00
67  6.6000000000000E-01 -6.6275853660484E-01  1.1174768138965E+00
68  6.7000000000000E-01 -6.9278233182471E-01  1.1716543642035E+00
69  6.8000000000000E-01 -7.1603139735415E-01  1.2247012569759E+00
70  6.9000000000000E-01 -7.3263504135626E-01  1.2766370484675E+00
71  7.0000000000000E-01 -7.4277573275490E-01  1.3275029265211E+00
72  7.1000000000000E-01 -7.4668735247285E-01  1.3773417738932E+00
73  7.2000000000000E-01 -7.4465298324480E-01  1.4261777496659E+00
74  7.3000000000000E-01 -7.3700218471692E-01  1.4739963946117E+00
75  7.4000000000000E-01 -7.2410770903096E-01  1.5207262526654E+00
76  7.5000000000000E-01 -7.0638162502802E-01  1.5662229433197E+00
77  7.6000000000000E-01 -6.8427083619239E-01  1.6102565209487E+00
78  7.7000000000000E-01 -6.5825199786350E-01  1.6525028208657E+00
79  7.8000000000000E-01 -6.2882586224437E-01  1.6925393241313E+00
80  7.9000000000000E-01 -5.9651110433025E-01  1.7298458810916E+00
81  8.0000000000000E-01 -5.6183770692791E-01  1.7638104259752E+00
82  8.1000000000000E-01 -5.2534000720833E-01  1.7937396011664E+00
83  8.2000000000000E-01 -4.8754952945545E-01  1.8188740001412E+00
84  8.3000000000000E-01 -4.4898774757246E-01  1.8384075428415E+00
85  8.4000000000000E-01 -4.1015893527091E-01  1.8515103265900E+00
86  8.5000000000000E-01 -3.7154327058889E-01  1.8573541590513E+00
87  8.6000000000000E-01 -3.3359036350406E-01  1.8551398857885E+00
88  8.7000000000000E-01 -2.9671337015733E-01  1.8441255809339E+00
89  8.8000000000000E-01 -2.6128384403667E-01  1.8236546811142E+00
90  8.9000000000000E-01 -2.2762745308607E-01  1.7931832139902E+00
91  9.0000000000000E-01 -1.9602066206172E-01  1.7523054056224E+00
92  9.1000000000000E-01 -1.6668844177933E-01  1.7007771454017E+00
93  9.2000000000000E-01 -1.3980302166709E-01  1.6385370415445E+00
94  9.3000000000000E-01 -1.1548364998881E-01  1.5657251102863E+00
95  9.4000000000000E-01 -9.3797268184383E-02  1.4826995022942E+00
96  9.5000000000000E-01 -7.4759943133420E-02  1.3900520732874E+00
97  9.6000000000000E-01 -5.8338835104192E-02  1.2886240437519E+00
98  9.7000000000000E-01 -4.4454411080591E-02  1.1795234557093E+00
99  9.8000000000000E-01 -3.2982544604006E-02  1.0641466121100E+00
100  9.9000000000000E-01 -2.3756075087608E-02  9.4420617405514E-01
101  1.0000000000000E+00 -1.6565344260305E-02  8.2176893719530E-01
102  1.0100000000000E+00 -1.1157192816154E-02  6.9930642089461E-01
103  1.0200000000000E+00 -7.2414272978927E-03  5.7963915532890E-01
104  1.0300000000000E+00 -4.5221613024200E-03  4.6557490987373E-01
105  1.0400000000000E+00 -2.7184513816905E-03  3.5972312245456E-01
106  1.0500000000000E+00 -1.5750725617541E-03  2.6443926390563E-01
107  1.0600000000000E+00 -9.0069908643735E-04  1.8159777547948E-01
108  1.0700000000000E+00 -5.3270872483994E-04  1.1279622421471E-01
109  1.0800000000000E+00 -3.1090824738264E-04  5.9559737441722E-02
110  1.0900000000000E+00 -1.4786179233122E-04  2.2935856373288E-02
111  1.1000000000000E+00 -2.9013539380755E-05  3.4529413928809E-03
112  1.1100000000000E+00  1.6438104506969E-06 -1.6148623524829E-04
113  1.1200000000000E+00  1.5463222971690E-08 -1.8433700673511E-06
114  1.13 -0. -0.
115  1.14  0.  0.
116  1.15  0.  0.
117  1.16  0.  0.
118  1.17  0.  0.
119  1.18  0.  0.
120  1.19  0.  0.
121  1.20  0.  0.
122  1.21  0.  0.
123  1.22  0.  0.
124  1.23  0.  0.
125  1.24  0.  0.
126  1.25  0.  0.
127  1.26  0.  0.
128  1.27  0.  0.
129  1.28  0.  0.
130  1.29  0.  0.
131  1.30  0.  0.
132  1.31  0.  0.
133  1.32  0.  0.
134  1.33  0.  0.
135  1.34  0.  0.
136  1.35  0.  0.
137  1.36  0.  0.
138  1.37  0.  0.
139  1.38  0.  0.
140  1.39  0.  0.
141  1.40  0.  0.
142  1.41  0.  0.
143  1.42  0.  0.
144  1.43  0.  0.
145  1.44  0.  0.
146  1.45  0.  0.
147  1.46  0.  0.
148  1.47  0.  0.
149  1.48  0.  0.
150  1.49  0.  0.
151  1.50  0.  0.
152  1.51  0.  0.
153  1.52  0.  0.
154  1.53  0.  0.
155  1.54  0.  0.
156  1.55  0.  0.
157  1.56  0.  0.
158  1.57  0.  0.
159  1.58  0.  0.
160  1.59  0.  0.
161  1.60  0.  0.
162  1.61  0.  0.
163  1.62  0.  0.
164  1.63  0.  0.
165  1.64  0.  0.
166  1.65  0.  0.
167  1.66  0.  0.
168  1.67  0.  0.
169  1.68  0.  0.
170  1.69  0.  0.
171  1.70  0.  0.
172  1.71  0.  0.
173  1.72  0.  0.
174  1.73  0.  0.
175  1.74  0.  0.
176  1.75  0.  0.
177  1.76  0.  0.
178  1.77  0.  0.
179  1.78  0.  0.
180  1.79  0.  0.
181  1.80  0.  0.
182  1.81  0.  0.
183  1.82  0.  0.
184  1.83  0.  0.
185  1.84  0.  0.
186  1.85  0.  0.
187  1.86  0.  0.
188  1.87  0.  0.
189  1.88  0.  0.
190  1.89  0.  0.
191  1.90  0.  0.
192  1.91  0.  0.
193  1.92  0.  0.
194  1.93  0.  0.
195  1.94  0.  0.
196  1.95  0.  0.
197  1.96  0.  0.