Bh    ONCVPSP-4.0.1  r_core=   1.10207   1.20554   1.10207   1.20554
107.0000     47.0000      230612    zatom,zion,pspd
8      11   3     4   600     0    pspcod,pspxc,lmax,lloc,mmax,r2well
5.99000000  3.00000000  0.00000000    rchrg fchrg qchrg
3     3     2     2    nproj
3     1           extension_switch
4     4     3    nprojso
0                         1.2277756959234E+01 -1.1651197425491E+01 -1.9922731770479E-01
1  0.0000000000000E+00 -6.3554304041702E-09  9.5689900447837E-11  1.1039130892732E-07
2  1.0000000000000E-02  1.8357318258426E-01  6.5023390306117E-02 -6.3094890792919E-02
3  2.0000000000000E-02  3.6540662173031E-01  1.2995296825530E-01 -1.2457927940286E-01
4  3.0000000000000E-02  5.4377990292568E-01  1.9469475930446E-01 -1.8289077116573E-01
5  4.0000000000000E-02  7.1701103960870E-01  2.5915446912078E-01 -2.3656186426301E-01
6  5.0000000000000E-02  8.8347511369352E-01  3.2323733512402E-01 -2.8426411842181E-01
7  6.0000000000000E-02  1.0416222317185E+00  3.8684799169686E-01 -3.2484846803334E-01
8  7.0000000000000E-02  1.1899945751194E+00  4.4989035352008E-01 -3.5738052381215E-01
9  8.0000000000000E-02  1.3272423294845E+00  5.1226752139336E-01 -3.8116981751037E-01
10  9.0000000000000E-02  1.4521382863654E+00  5.7388171477075E-01 -3.9579208132544E-01
11  1.0000000000000E-01  1.5635909227132E+00  6.3463423506425E-01 -4.0110381649476E-01
12  1.1000000000000E-01  1.6606557776720E+00  6.9442546354273E-01 -3.9724859256447E-01
13  1.2000000000000E-01  1.7425449646496E+00  7.5315489736881E-01 -3.8465472763225E-01
14  1.3000000000000E-01  1.8086346785302E+00  8.1072122696672E-01 -3.6402422731562E-01
15  1.4000000000000E-01  1.8584705837181E+00  8.6702245749418E-01 -3.3631310215344E-01
16  1.5000000000000E-01  1.8917709983512E+00  9.2195607669692E-01 -3.0270343446849E-01
17  1.6000000000000E-01  1.9084278232414E+00  9.7541927085377E-01 -2.6456782028641E-01
18  1.7000000000000E-01  1.9085052004545E+00  1.0273091898748E+00 -2.2342706266713E-01
19  1.8000000000000E-01  1.8922359252611E+00  1.0775232618969E+00 -1.8090223197833E-01
20  1.9000000000000E-01  1.8600156756272E+00  1.1259595569384E+00 -1.3866242785936E-01
21  2.0000000000000E-01  1.8123951644394E+00  1.1725171983363E+00 -9.8369768300258E-02
22  2.1000000000000E-01  1.7500703600974E+00  1.2170968198064E+00 -6.1623284858785E-02
23  2.2000000000000E-01  1.6738709596950E+00  1.2596010650589E+00 -2.9903511486178E-02
24  2.3000000000000E-01  1.5847473344276E+00  1.2999351259815E+00 -4.5196105621652E-03
25  2.4000000000000E-01  1.4837561978183E+00  1.3380073144920E+00  1.3439122415152E-02
26  2.5000000000000E-01  1.3720452726093E+00  1.3737296622861E+00  2.3145598656445E-02
27  2.6000000000000E-01  1.2508372506469E+00  1.4070185418810E+00  2.4069472945585E-02
28  2.7000000000000E-01  1.1214133508933E+00  1.4377953016085E+00  1.6002423981665E-02
29  2.8000000000000E-01  9.8509678319247E-01  1.4659869065629E+00 -9.2701949441958E-04
30  2.9000000000000E-01  8.4323641925316E-01  1.4915265769811E+00 -2.6249991978898E-02
31  3.0000000000000E-01  6.9719095746194E-01  1.5143544151428E+00 -5.9165667880576E-02
32  3.1000000000000E-01  5.4831384492614E-01  1.5344180116440E+00 -9.8561626142140E-02
33  3.2000000000000E-01  3.9793918923537E-01  1.5516730218327E+00 -1.4304590242265E-01
34  3.3000000000000E-01  2.4736885481850E-01  1.5660837033052E+00 -1.9098999263738E-01
35  3.4000000000000E-01  9.7860895758859E-02  1.5776234056573E+00 -2.4058164100603E-01
36  3.5000000000000E-01 -4.9380569927136E-02  1.5862750041592E+00 -2.8988583714791E-01
37  3.6000000000000E-01 -1.9321398848837E-01  1.5920312696762E+00 -3.3691207724226E-01
38  3.7000000000000E-01 -3.3256749420581E-01  1.5948951679792E+00 -3.7968563031832E-01
39  3.8000000000000E-01 -4.6644456923730E-01  1.5948800825597E+00 -4.1632030762726E-01
40  3.9000000000000E-01 -5.9392832383685E-01  1.5920099561760E+00 -4.4509007398089E-01
41  4.0000000000000E-01 -7.1418451961684E-01  1.5863193475707E+00 -4.6449677553299E-01
42  4.1000000000000E-01 -8.2646348989409E-01  1.5778534011060E+00 -4.7333129603923E-01
43  4.2000000000000E-01 -9.3010113423204E-01  1.5666677284168E+00 -4.7072559672448E-01
44  4.3000000000000E-01 -1.0245191780930E+00  1.5528282025653E+00 -4.5619334300735E-01
45  4.4000000000000E-01 -1.1092248924810E+00  1.5364106665480E+00 -4.2965716963481E-01
46  4.5000000000000E-01 -1.1838104624456E+00  1.5175005593376E+00 -3.9146107514195E-01
47  4.6000000000000E-01 -1.2479521776367E+00  1.4961924638963E+00 -3.4236695368995E-01
48  4.7000000000000E-01 -1.3014095935069E+00  1.4725895827482E+00 -2.8353485016337E-01
49  4.8000000000000E-01 -1.3440247794185E+00  1.4468031477185E+00 -2.1648714258135E-01
50  4.9000000000000E-01 -1.3757217313862E+00  1.4189517713118E+00 -1.4305749148631E-01
51  5.0000000000000E-01 -1.3965059843483E+00  1.3891607478945E+00 -6.5326024337810E-02
52  5.1000000000000E-01 -1.4064644138107E+00  1.3575613133439E+00  1.4457181356562E-02
53  5.2000000000000E-01 -1.4057651717375E+00  1.3242898721362E+00  9.3957714659962E-02
54  5.3000000000000E-01 -1.3946576589656E+00  1.2894872009410E+00  1.7084849010794E-01
55  5.4000000000000E-01 -1.3734723984834E+00  1.2532976377019E+00  2.4290403894216E-01
56  5.5000000000000E-01 -1.3426206427401E+00  1.2158682648886E+00  3.0809379199781E-01
57  5.6000000000000E-01 -1.3025935255998E+00  1.1773480951506E+00  3.6467061869077E-01
58  5.7000000000000E-01 -1.2539605571226E+00  1.1378872669789E+00  4.1125093666412E-01
59  5.8000000000000E-01 -1.1973672581367E+00  1.0976362572327E+00  4.4688290536351E-01
60  5.9000000000000E-01 -1.1335317421317E+00  1.0567451165306E+00  4.7109956182145E-01
61  6.0000000000000E-01 -1.0632400744256E+00  1.0153627325735E+00  4.8395423993647E-01
62  6.1000000000000E-01 -9.8734027233724E-01  9.7363612549741E-01  4.8603622128646E-01
63  6.2000000000000E-01 -9.0673485419328E-01  9.3170977836729E-01  4.7846527624771E-01
64  6.3000000000000E-01 -8.2237189786649E-01  8.8972500497521E-01  4.6286454415781E-01
65  6.4000000000000E-01 -7.3523462915044E-01  8.4781935620285E-01  4.4131204160905E-01
66  6.5000000000000E-01 -6.4632962423177E-01  8.0612606540172E-01  4.1627194676821E-01
67  6.6000000000000E-01 -5.5667377611672E-01  7.6477353254699E-01  3.9050765106550E-01
68  6.7000000000000E-01 -4.6728023922129E-01  7.2388484636014E-01  3.6697936325425E-01
69  6.8000000000000E-01 -3.7914362650253E-01  6.8357734318759E-01  3.4872976118479E-01
70  6.9000000000000E-01 -2.9322478660887E-01  6.4396220117674E-01  3.3876178223503E-01
71  7.0000000000000E-01 -2.1043553187504E-01  6.0514406821347E-01  3.3991309640593E-01
72  7.1000000000000E-01 -1.3162371921773E-01  5.6722072217313E-01  3.5473209364322E-01
73  7.2000000000000E-01 -5.7559103164178E-02  5.3028276228207E-01  3.8536032187761E-01
74  7.3000000000000E-01  1.1079618032611E-02  4.9441333077415E-01  4.3342622436931E-01
75  7.4000000000000E-01  7.3716156769762E-02  4.5968786453484E-01  4.9995474131332E-01
76  7.5000000000000E-01  1.2988601544917E-01  4.2617387702900E-01  5.8529686638002E-01
77  7.6000000000000E-01  1.7924356202979E-01  3.9393077147524E-01  6.8908259673292E-01
78  7.7000000000000E-01  2.2156653429959E-01  3.6300968692683E-01  8.1019990552674E-01
79  7.8000000000000E-01  2.5675777935333E-01  3.3345337960840E-01  9.4680142642486E-01
80  7.9000000000000E-01  2.8484411888422E-01  3.0529614250264E-01  1.0963395038161E+00
81  8.0000000000000E-01  3.0597232216003E-01  2.7856376674274E-01  1.2556291686789E+00
82  8.1000000000000E-01  3.2040226354771E-01  2.5327354881017E-01  1.4209374904224E+00
83  8.2000000000000E-01  3.2849743648713E-01  2.2943434782898E-01  1.5880966736175E+00
84  8.3000000000000E-01  3.3071308710353E-01  2.0704669735953E-01  1.7526372594325E+00
85  8.4000000000000E-01  3.2758231442245E-01  1.8610297600288E-01  1.9099368975295E+00
86  8.5000000000000E-01  3.1970055684559E-01  1.6658764081489E-01  2.0553794144967E+00
87  8.6000000000000E-01  3.0770894294419E-01  1.4847752698810E-01  2.1845183539466E+00
88  8.7000000000000E-01  2.9227702600650E-01  1.3174221648753E-01  2.2932388290202E+00
89  8.8000000000000E-01  2.7408544403402E-01  1.1634447733116E-01  2.3779114302288E+00
90  8.9000000000000E-01  2.5380904864062E-01  1.0224077400322E-01  2.4355320814749E+00
91  9.0000000000000E-01  2.3210102698974E-01  8.9381848101553E-02  2.4638421363609E+00
92  9.1000000000000E-01  2.0957850077072E-01  7.7713366782294E-02  2.4614236472801E+00
93  9.2000000000000E-01  1.8681002638279E-01  6.7176634913801E-02  2.4277656032889E+00
94  9.3000000000000E-01  1.6430534289684E-01  5.7709365133127E-02  2.3632979921270E+00
95  9.4000000000000E-01  1.4250762172805E-01  4.9246498261874E-02  2.2693917609586E+00
96  9.5000000000000E-01  1.2178836759662E-01  4.1721064836712E-02  2.1483240870727E+00
97  9.6000000000000E-01  1.0244500824755E-01  3.5065076898949E-02  2.0032097745645E+00
98  9.7000000000000E-01  8.4701094794447E-02  2.9210437721045E-02  1.8379010140365E+00
99  9.8000000000000E-01  6.8708919990503E-02  2.4089855879273E-02  1.6568591249998E+00
100  9.9000000000000E-01  5.4554252765728E-02  1.9637749059505E-02  1.4650031909111E+00
101  1.0000000000000E+00  4.2262788350590E-02  1.5791122250571E-02  1.2675416437333E+00
102  1.0100000000000E+00  3.1807828374597E-02  1.2490404573840E-02  1.0697938106396E+00
103  1.0200000000000E+00  2.3118637977460E-02  9.6802289449820E-03  8.7700916033018E-01
104  1.0300000000000E+00  1.6088881969391E-02  7.3101413927496E-03  6.9419243435429E-01
105  1.0400000000000E+00  1.0584530344509E-02  5.3352056390693E-03  5.2594301540610E-01
106  1.0500000000000E+00  6.4496616702990E-03  3.7156876197413E-03  3.7632303390023E-01
107  1.0600000000000E+00  3.5132922738697E-03  2.4093973954335E-03  2.4875847484647E-01
108  1.0700000000000E+00  1.6098919256934E-03  1.3946513850725E-03  1.4583040188611E-01
109  1.0800000000000E+00  5.4528299388717E-04  6.5978699229833E-04  6.9434295273167E-02
110  1.0900000000000E+00  9.4094433460971E-05  1.9736412525509E-04  2.0780866784329E-02
111  1.1000000000000E+00  6.9838547286209E-07  8.6557508355677E-06  9.0540130439850E-04
112  1.1100000000000E+00  6.8250580811387E-08  6.0018210387856E-07  6.3086431423588E-05
113  1.1200000000000E+00 -3.2724685794421E-08 -1.2032958839298E-07 -1.2669347055543E-05
114  1.13  0.  0.  0.
115  1.14  0.  0.  0.
116  1.15  0.  0.  0.
117  1.16  0.  0.  0.
118  1.17  0.  0.  0.
119  1.18  0.  0.  0.
120  1.19  0.  0.  0.
121  1.20  0.  0.  0.
122  1.21  0.  0.  0.
123  1.22  0.  0.  0.
124  1.23  0.  0.  0.
125  1.24  0.  0.  0.
126  1.25  0.  0.  0.
127  1.26  0.  0.  0.
128  1.27  0.  0.  0.
129  1.28  0.  0.  0.
130  1.29  0.  0.  0.
131  1.30  0.  0.  0.
132  1.31  0.  0.  0.
133  1.32  0.  0.  0.
134  1.33  0.  0.  0.
135  1.34  0.  0.  0.
136  1.35  0.  0.  0.
137  1.36  0.  0.  0.
138  1.37  0.  0.  0.
139  1.38  0.  0.  0.
140  1.39  0.  0.  0.
141  1.40  0.  0.  0.
142  1.41  0.  0.  0.
143  1.42  0.  0.  0.
144  1.43  0.  0.  0.
145  1.44  0.  0.  0.
146  1.45  0.  0.  0.
147  1.46  0.  0.  0.
148  1.47  0.  0.  0.
149  1.48  0.  0.  0.
150  1.49  0.  0.  0.
151  1.50  0.  0.  0.
152  1.51  0.  0.  0.
153  1.52  0.  0.  0.
154  1.53  0.  0.  0.
155  1.54  0.  0.  0.
156  1.55  0.  0.  0.
157  1.56  0.  0.  0.
158  1.57  0.  0.  0.
159  1.58  0.  0.  0.
160  1.59  0.  0.  0.
161  1.60  0.  0.  0.
162  1.61  0.  0.  0.
163  1.62  0.  0.  0.
164  1.63  0.  0.  0.
165  1.64  0.  0.  0.
166  1.65  0.  0.  0.
167  1.66  0.  0.  0.
168  1.67  0.  0.  0.
169  1.68  0.  0.  0.
170  1.69  0.  0.  0.
171  1.70  0.  0.  0.
172  1.71  0.  0.  0.
173  1.72  0.  0.  0.
174  1.73  0.  0.  0.
175  1.74  0.  0.  0.
176  1.75  0.  0.  0.
177  1.76  0.  0.  0.
178  1.77  0.  0.  0.
179  1.78  0.  0.  0.
180  1.79  0.  0.  0.
181  1.80  0.  0.  0.
182  1.81  0.  0.  0.
183  1.82  0.  0.  0.
184  1.83  0.  0.  0.
185  1.84  0.  0.  0.
186  1.85  0.  0.  0.
187  1.86  0.  0.  0.
188  1.87  0.  0.  0.
189  1.88  0.  0.  0.
190  1.89  0.  0.  0.
191  1.90  0.  0.  0.
192  1.91  0.  0.  0.
193  1.92  0.  0.  0.
194  1.93  0.  0.  0.
195  1.94  0.  0.  0.
196  1.95  0.  0.  0.
197  1.96  0.  0.  0.
198  1.97  0.  0.  0.
199  1.98  0.  0.  0.
200  1.99  0.  0.  0.
201  2.00  0.  0.  0.
202  2.01  0.  0.  0.
203  2.02  0.  0.  0.
204  2.03  0.  0.  0.
205  2.04  0.  0.  0.
206  2.05  0.  0.  0.
207  2.06  0.  0.  0.
208  2.07  0.  0.  0.
209  2.08  0.  0.  0.
210  2.09  0.  0.  0.
211  2.10  0.  0.  0.
212  2.11  0.  0.  0.
213  2.12  0.  0.  0.
214  2.13  0.  0.  0.
215  2.14  0.  0.  0.
216  2.15  0.  0.  0.
217  2.16  0.  0.  0.
218  2.17  0.  0.  0.
219  2.18  0.  0.  0.
220  2.19  0.  0.  0.
221  2.20  0.  0.  0.
222  2.21  0.  0.  0.
223  2.22  0.  0.  0.
224  2.23  0.  0.  0.
225  2.24  0.  0.  0.
226  2.25  0.  0.  0.
227  2.26  0.  0.  0.
228  2.27  0.  0.  0.
229  2.28  0.  0.  0.
230  2.29  0.  0.  0.
231  2.30  0.  0.  0.
232  2.31  0.  0.  0.
233  2.32  0.  0.  0.
234  2.33  0.  0.  0.
235  2.34  0.  0.  0.
236  2.35  0.  0.  0.
237  2.36  0.  0.  0.
238  2.37  0.  0.  0.
239  2.38  0.  0.  0.
240  2.39  0.  0.  0.
241  2.40  0.  0.  0.
242  2.41  0.  0.  0.
243  2.42  0.  0.  0.
244  2.43  0.  0.  0.
245  2.44  0.  0.  0.
246  2.45  0.  0.  0.
247  2.46  0.  0.  0.
248  2.47  0.  0.  0.
249  2.48  0.  0.  0.
250  2.49  0.  0.  0.
251  2.50  0.  0.  0.
252  2.51  0.  0.  0.
253  2.52  0.  0.  0.
254  2.53  0.  0.  0.
255  2.54  0.  0.  0.
256  2.55  0.  0.  0.
257  2.56  0.  0.  0.
258  2.57  0.  0.  0.
259  2.58  0.  0.  0.
260  2.59  0.  0.  0.
261  2.60  0.  0.  0.
262  2.61  0.  0.  0.
263  2.62  0.  0.  0.
264  2.63  0.  0.  0.
265  2.64  0.  0.  0.
266  2.65  0.  0.  0.
267  2.66  0.  0.  0.
268  2.67  0.  0.  0.
269  2.68  0.  0.  0.
270  2.69  0.  0.  0.
271  2.70  0.  0.  0.
272  2.71  0.  0.  0.
273  2.72  0.  0.  0.
274  2.73  0.  0.  0.
275  2.74  0.  0.  0.
276  2.75  0.  0.  0.
277  2.76  0.  0.  0.
278  2.77  0.  0.  0.
279  2.78  0.  0.  0.
280  2.79  0.  0.  0.
281  2.80  0.  0.  0.
282  2.81  0.  0.  0.
283  2.82  0.  0.  0.
284  2.83  0.  0.  0.
285  2.84  0.  0.  0.
286  2.85  0.  0.  0.
287  2.86  0.  0.  0.
288  2.87  0.  0.  0.
289  2.88  0.  0.  0.
290  2.89  0.  0.  0.
291  2.90  0.  0.  0.
292  2.91  0.  0.  0.
293  2.92  0.  0.  0.
294  2.93  0.  0.  0.
295  2.94  0.  0.  0.
296  2.95  0.  0.  0.
297  2.96  0.  0.  0.
298  2.97  0.  0.  0.
299  2.98  0.  0.  0.
300  2.99  0.  0.  0.
301  3.00  0.  0.  0.
302  3.01  0.  0.  0.
303  3.02  0.  0.  0.
304  3.03  0.  0.  0.
305  3.04  0.  0.  0.
306  3.05  0.  0.  0.
307  3.06  0.  0.  0.
308  3.07  0.  0.  0.
309  3.08  0.  0.  0.
310  3.09  0.  0.  0.
311  3.10  0.  0.  0.
312  3.11  0.  0.  0.
313  3.12  0.  0.  0.
314  3.13  0.  0.  0.
315  3.14  0.  0.  0.
316  3.15  0.  0.  0.
317  3.16  0.  0.  0.
318  3.17  0.  0.  0.
319  3.18  0.  0.  0.
320  3.19  0.  0.  0.
321  3.20  0.  0.  0.
322  3.21  0.  0.  0.
323  3.22  0.  0.  0.
324  3.23  0.  0.  0.
325  3.24  0.  0.  0.
326  3.25  0.  0.  0.
327  3.26  0.  0.  0.
328  3.27  0.  0.  0.
329  3.28  0.  0.  0.
330  3.29  0.  0.  0.
331  3.30  0.  0.  0.
332  3.31  0.  0.  0.
333  3.32  0.  0.  0.
334  3.33  0.  0.  0.
335  3.34  0.  0.  0.
336  3.35  0.  0.  0.
337  3.36  0.  0.  0.
338  3.37  0.  0.  0.
339  3.38  0.  0.  0.
340  3.39  0.  0.  0.
341  3.40  0.  0.  0.
342  3.41  0.  0.  0.
343  3.42  0.  0.  0.
344  3.43  0.  0.  0.
345  3.44  0.  0.  0.
346  3.45  0.  0.  0.
347  3.46  0.  0.  0.
348  3.47  0.  0.  0.
349  3.48  0.  0.  0.
350  3.49  0.  0.  0.
351  3.50  0.  0.  0.
352  3.51  0.  0.  0.
353  3.52  0.  0.  0.
354  3.53  0.  0.  0.
355  3.54  0.  0.  0.
356  3.55  0.  0.  0.
357  3.56  0.  0.  0.
358  3.57  0.  0.  0.
359  3.58  0.  0.  0.
360  3.59  0.  0.  0.
361  3.60  0.  0.  0.
362  3.61  0.  0.  0.
363  3.62  0.  0.  0.
364  3.63  0.  0.  0.
365  3.64  0.  0.  0.
366  3.65  0.  0.  0.
367  3.66  0.  0.  0.
368  3.67  0.  0.  0.
369  3.68  0.  0.  0.
370  3.69  0.  0.  0.
371  3.70  0.  0.  0.
372  3.71  0.  0.  0.
373  3.72  0.  0.  0.
374  3.73  0.  0.  0.
375  3.74  0.  0.  0.
376  3.75  0.  0.  0.
377  3.76  0.  0.  0.
378  3.77  0.  0.  0.
379  3.78  0.  0.  0.
380  3.79  0.  0.  0.
381  3.80  0.  0.  0.
382  3.81  0.  0.  0.
383  3.82  0.  0.  0.
384  3.83  0.  0.  0.
385  3.84  0.  0.  0.
386  3.85  0.  0.  0.
387  3.86  0.  0.  0.
388  3.87  0.  0.  0.
389  3.88  0.  0.  0.
390  3.89  0.  0.  0.
391  3.90  0.  0.  0.
392  3.91  0.  0.  0.
393  3.92  0.  0.  0.
394  3.93  0.  0.  0.
395  3.94  0.  0.  0.
396  3.95  0.  0.  0.
397  3.96  0.  0.  0.
398  3.97  0.  0.  0.
399  3.98  0.  0.  0.
400  3.99  0.  0.  0.
401  4.00  0.  0.  0.
402  4.01  0.  0.  0.
403  4.02  0.  0.  0.
404  4.03  0.  0.  0.
405  4.04  0.  0.  0.
406  4.05  0.  0.  0.
407  4.06  0.  0.  0.
408  4.07  0.  0.  0.
409  4.08  0.  0.  0.
410  4.09  0.  0.  0.
411  4.10  0.  0.  0.
412  4.11  0.  0.  0.
413  4.12  0.  0.  0.
414  4.13  0.  0.  0.
415  4.14  0.  0.  0.
416  4.15  0.  0.  0.
417  4.16  0.  0.  0.
418  4.17  0.  0.  0.
419  4.18  0.  0.  0.
420  4.19  0.  0.  0.
421  4.20  0.  0.  0.
422  4.21  0.  0.  0.
423  4.22  0.  0.  0.
424  4.23  0.  0.  0.
425  4.24  0.  0.  0.
426  4.25  0.  0.  0.
427  4.26  0.  0.  0.
428  4.27  0.  0.  0.
429  4.28  0.  0.  0.
430  4.29  0.  0.  0.
431  4.30  0.  0.  0.
432  4.31  0.  0.  0.
433  4.32  0.  0.  0.
434  4.33  0.  0.  0.
435  4.34  0.  0.  0.
436  4.35  0.  0.  0.
437  4.36  0.  0.  0.
438  4.37  0.  0.  0.
439  4.38  0.  0.  0.
440  4.39  0.  0.  0.
441  4.40  0.  0.  0.
442  4.41  0.  0.  0.
443  4.42  0.  0.  0.
444  4.43  0.  0.  0.
445  4.44  0.  0.  0.
446  4.45  0.  0.  0.
447  4.46  0.  0.  0.
448  4.47  0.  0.  0.
449  4.48  0.  0.  0.
450  4.49  0.  0.  0.
451  4.50  0.  0.  0.
452  4.51  0.  0.  0.
453  4.52  0.  0.  0.
454  4.53  0.  0.  0.
455  4.54  0.  0.  0.
456  4.55  0.  0.  0.
457  4.56  0.  0.  0.
458  4.57  0.  0.  0.
459  4.58  0.  0.  0.
460  4.59  0.  0.  0.
461  4.60  0.  0.  0.
462  4.61  0.  0.  0.
463  4.62  0.  0.  0.
464  4.63  0.  0.  0.
465  4.64  0.  0.  0.
466  4.65  0.  0.  0.
467  4.66  0.  0.  0.
468  4.67  0.  0.  0.
469  4.68  0.  0.  0.
470  4.69  0.  0.  0.
471  4.70  0.  0.  0.
472  4.71  0.  0.  0.
473  4.72  0.  0.  0.
474  4.73  0.  0.  0.
475  4.74  0.  0.  0.
476  4.75  0.  0.  0.
477  4.76  0.  0.  0.
478  4.77  0.  0.  0.
479  4.78  0.  0.  0.
480  4.79  0.  0.  0.
481  4.80  0.  0.  0.
482  4.81  0.  0.  0.
483  4.82  0.  0.  0.
484  4.83  0.  0.  0.
485  4.84  0.  0.  0.
486  4.85  0.  0.  0.
487  4.86  0.  0.  0.
488  4.87  0.  0.  0.
489  4.88  0.  0.  0.
490  4.89  0.  0.  0.
491  4.90  0.  0.  0.
492  4.91  0.  0.  0.
493  4.92  0.  0.  0.
494  4.93  0.  0.  0.
495  4.94  0.  0.  0.
496  4.95  0.  0.  0.
497  4.96  0.  0.  0.
498  4.97  0.  0.  0.
499  4.98  0.  0.  0.
500  4.99  0.  0.  0.
501  5.00  0.  0.  0.
502  5.01  0.  0.  0.
503  5.02  0.  0.  0.
504  5.03  0.  0.  0.
505  5.04  0.  0.  0.
506  5.05  0.  0.  0.
507  5.06  0.  0.  0.
508  5.07  0.  0.  0.
509  5.08  0.  0.  0.
510  5.09  0.  0.  0.
511  5.10  0.  0.  0.
512  5.11  0.  0.  0.
513  5.12  0.  0.  0.
514  5.13  0.  0.  0.
515  5.14  0.  0.  0.
516  5.15  0.  0.  0.
517  5.16  0.  0.  0.
518  5.17  0.  0.  0.
519  5.18  0.  0.  0.
520  5.19  0.  0.  0.
521  5.20  0.  0.  0.
522  5.21  0.  0.  0.
523  5.22  0.  0.  0.
524  5.23  0.  0.  0.
525  5.24  0.  0.  0.
526  5.25  0.  0.  0.
527  5.26  0.  0.  0.
528  5.27  0.  0.  0.
529  5.28  0.  0.  0.
530  5.29  0.  0.  0.
531  5.30  0.  0.  0.
532  5.31  0.  0.  0.
533  5.32  0.  0.  0.
534  5.33  0.  0.  0.
535  5.34  0.  0.  0.
536  5.35  0.  0.  0.
537  5.36  0.  0.  0.
538  5.37  0.  0.  0.
539  5.38  0.  0.  0.
540  5.39  0.  0.  0.
541  5.40  0.  0.  0.
542  5.41  0.  0.  0.
543  5.42  0.  0.  0.
544  5.43  0.  0.  0.
545  5.44  0.  0.  0.
546  5.45  0.  0.  0.
547  5.46  0.  0.  0.
548  5.47  0.  0.  0.
549  5.48  0.  0.  0.
550  5.49  0.  0.  0.
551  5.50  0.  0.  0.
552  5.51  0.  0.  0.
553  5.52  0.  0.  0.
554  5.53  0.  0.  0.
555  5.54  0.  0.  0.
556  5.55  0.  0.  0.
557  5.56  0.  0.  0.
558  5.57  0.  0.  0.
559  5.58  0.  0.  0.
560  5.59  0.  0.  0.
561  5.60  0.  0.  0.
562  5.61  0.  0.  0.
563  5.62  0.  0.  0.
564  5.63  0.  0.  0.
565  5.64  0.  0.  0.
566  5.65  0.  0.  0.
567  5.66  0.  0.  0.
568  5.67  0.  0.  0.
569  5.68  0.  0.  0.
570  5.69  0.  0.  0.
571  5.70  0.  0.  0.
572  5.71  0.  0.  0.
573  5.72  0.  0.  0.
574  5.73  0.  0.  0.
575  5.74  0.  0.  0.
576  5.75  0.  0.  0.
577  5.76  0.  0.  0.
578  5.77  0.  0.  0.
579  5.78  0.  0.  0.
580  5.79  0.  0.  0.
581  5.80  0.  0.  0.
582  5.81  0.  0.  0.
583  5.82  0.  0.  0.
584  5.83  0.  0.  0.
585  5.84  0.  0.  0.
586  5.85  0.  0.  0.
587  5.86  0.  0.  0.
588  5.87  0.  0.  0.
589  5.88  0.  0.  0.
590  5.89  0.  0.  0.
591  5.90  0.  0.  0.
592  5.91  0.  0.  0.
593  5.92  0.  0.  0.
594  5.93  0.  0.  0.
595  5.94  0.  0.  0.
596  5.95  0.  0.  0.
597  5.96  0.  0.  0.
598  5.97  0.  0.  0.
599  5.98  0.  0.  0.
600  5.99  0.  0.  0.
1                        -1.0780136885581E+01  1.5064229106546E+00 -3.3669763506186E-01
1  0.0000000000000E+00  5.2090352031797E-09  5.4196396759298E-08 -8.8579100276931E-08
2  1.0000000000000E-02  2.7596056711237E-03 -1.3127603863486E-03 -5.4176733458295E-03
3  2.0000000000000E-02  1.1017985213044E-02 -5.2652024167299E-03 -2.1565391002254E-02
4  3.0000000000000E-02  2.4714033719040E-02 -1.1898813953950E-02 -4.8129495619077E-02
5  4.0000000000000E-02  4.3746598235925E-02 -2.1279462462078E-02 -8.4594667073702E-02
6  5.0000000000000E-02  6.7975499700524E-02 -3.3492604283878E-02 -1.3025488721328E-01
7  6.0000000000000E-02  9.7222942094500E-02 -4.8636828562961E-02 -1.8422839957761E-01
8  7.0000000000000E-02  1.3127528782579E-01 -6.6815976296437E-02 -2.4547628696152E-01
9  8.0000000000000E-02  1.6988517313590E-01 -8.8130129200266E-02 -3.1282420109630E-01
10  9.0000000000000E-02  2.1277393268423E-01 -1.1266580707577E-01 -3.8498670368336E-01
11  1.0000000000000E-01  2.5963429846572E-01 -1.4048574466620E-01 -4.6059361859071E-01
12  1.1000000000000E-01  3.1013333495022E-01 -1.7161863847027E-01 -5.3821775282538E-01
13  1.2000000000000E-01  3.6391556984554E-01 -2.0604925996850E-01 -6.1640331997006E-01
14  1.3000000000000E-01  4.2060627821458E-01 -2.4370932401330E-01 -6.9369439459370E-01
15  1.4000000000000E-01  4.7981487683168E-01 -2.8446948000024E-01 -7.6866273960655E-01
16  1.5000000000000E-01  5.4113838563500E-01 -3.2813275961306E-01 -8.3993437992769E-01
17  1.6000000000000E-01  6.0416491388967E-01 -3.7442976957471E-01 -9.0621434393750E-01
18  1.7000000000000E-01  6.6847713017085E-01 -4.2301586251105E-01 -9.6630905723924E-01
19  1.8000000000000E-01  7.3365567744004E-01 -4.7347045562966E-01 -1.0191459490764E+00
20  1.9000000000000E-01  7.9928249723895E-01 -5.2529859761389E-01 -1.0637899177792E+00
21  2.0000000000000E-01  8.6494403027035E-01 -5.7793481128915E-01 -1.0994563950238E+00
22  2.1000000000000E-01  9.3023426426966E-01 -6.3074916571892E-01 -1.1255208464589E+00
23  2.2000000000000E-01  9.9475760398846E-01 -6.8305545893566E-01 -1.1415246453045E+00
24  2.3000000000000E-01  1.0581315421983E+00 -7.3412132395412E-01 -1.1471773527782E+00
25  2.4000000000000E-01  1.1199891147743E+00 -7.8318000835642E-01 -1.1423555317174E+00
26  2.5000000000000E-01  1.1799811270238E+00 -8.2944352365498E-01 -1.1270983048180E+00
27  2.6000000000000E-01  1.2377781423976E+00 -8.7211681662383E-01 -1.1015999440762E+00
28  2.7000000000000E-01  1.2930722284598E+00 -9.1041258227001E-01 -1.0661998412738E+00
29  2.8000000000000E-01  1.3455784584404E+00 -9.4356631812644E-01 -1.0213702590872E+00
30  2.9000000000000E-01  1.3950361697800E+00 -9.7085121268415E-01 -9.6770229753113E-01
31  3.0000000000000E-01  1.4412099837577E+00 -9.9159246718779E-01 -9.0589053036887E-01
32  3.1000000000000E-01  1.4838905925559E+00 -1.0051806693778E+00 -8.3671677079384E-01
33  3.2000000000000E-01  1.5228953219244E+00 -1.0110838693290E+00 -7.6103341553947E-01
34  3.3000000000000E-01  1.5580684789971E+00 -1.0088580501262E+00 -6.7974679259156E-01
35  3.4000000000000E-01  1.5892814957804E+00 -9.9815573820929E-01 -5.9380090123113E-01
36  3.5000000000000E-01  1.6164328794239E+00 -9.7873255793831E-01 -5.0416188604670E-01
37  3.6000000000000E-01  1.6394479806427E+00 -9.5045160018312E-01 -4.1180353092529E-01
38  3.7000000000000E-01  1.6582785916326E+00 -9.1328554323855E-01 -3.1769399723589E-01
39  3.8000000000000E-01  1.6729023845838E+00 -8.6731653373243E-01 -2.2278396497062E-01
40  3.9000000000000E-01  1.6833222014965E+00 -8.1273390303560E-01 -1.2799626909512E-01
41  4.0000000000000E-01  1.6895652055231E+00 -7.4982985867978E-01 -3.4217058333094E-02
42  4.1000000000000E-01  1.6916819035517E+00 -6.7899334827033E-01  5.7711557493961E-02
43  4.2000000000000E-01  1.6897450492761E+00 -6.0070234339594E-01  1.4699746039850E-01
44  4.3000000000000E-01  1.6838484356168E+00 -5.1551483143360E-01  2.3290321310328E-01
45  4.4000000000000E-01  1.6741055851106E+00 -4.2405883261644E-01  3.1474965667971E-01
46  4.5000000000000E-01  1.6606483468097E+00 -3.2702177735520E-01  3.9191861600954E-01
47  4.6000000000000E-01  1.6436254083429E+00 -2.2513958409323E-01  4.6385492672277E-01
48  4.7000000000000E-01  1.6232007321049E+00 -1.1918577087083E-01  5.3006799991009E-01
49  4.8000000000000E-01  1.5995519250525E+00 -9.9609146668123E-03  5.9013313179116E-01
50  4.9000000000000E-01  1.5728685522736E+00  1.0171725771342E-01  6.4369274528649E-01
51  5.0000000000000E-01  1.5433504053456E+00  2.1502290371997E-01  6.9045772015901E-01
52  5.1000000000000E-01  1.5112057374554E+00  3.2913002932175E-01  7.3020892955308E-01
53  5.2000000000000E-01  1.4766494782829E+00  4.4321924391537E-01  7.6279905515167E-01
54  5.3000000000000E-01  1.4399014426867E+00  5.5648322603630E-01  7.8815470290060E-01
55  5.4000000000000E-01  1.4011845482223E+00  6.6813088190196E-01  8.0627878857815E-01
56  5.5000000000000E-01  1.3607230574011E+00  7.7739024051869E-01  8.1725310980687E-01
57  5.6000000000000E-01  1.3187408613027E+00  8.8351018825172E-01  8.2124097083246E-01
58  5.7000000000000E-01  1.2754598216269E+00  9.8576120012215E-01  8.1848968086812E-01
59  5.8000000000000E-01  1.2310981884500E+00  1.0834352725331E+00  8.0933270822141E-01
60  5.9000000000000E-01  1.1858691107996E+00  1.1758453007582E+00  7.9419124273785E-01
61  6.0000000000000E-01  1.1399792566330E+00  1.2623241727658E+00  7.7357489996266E-01
62  6.1000000000000E-01  1.0936275578783E+00  1.3422238675806E+00  7.4808129310938E-01
63  6.2000000000000E-01  1.0470040948606E+00  1.4149148505858E+00  7.1839420427835E-01
64  6.3000000000000E-01  1.0002891326857E+00  1.4797860495639E+00  6.8528010477625E-01
65  6.4000000000000E-01  9.5365232001531E-01  1.5362456739501E+00  6.4958280573729E-01
66  6.5000000000000E-01  9.0725205816075E-01  1.5837231062620E+00  6.1221606394837E-01
67  6.6000000000000E-01  8.6123504560583E-01  1.6216720499792E+00  5.7415402275083E-01
68  6.7000000000000E-01  8.1573599998793E-01  1.6495750636722E+00  5.3641943260127E-01
69  6.8000000000000E-01  7.7087755630358E-01  1.6669495487321E+00  5.0006966838066E-01
70  6.9000000000000E-01  7.2677033673239E-01  1.6733551897336E+00  4.6618063855575E-01
71  7.0000000000000E-01  6.8351318408339E-01  1.6684027746616E+00  4.3582876224379E-01
72  7.1000000000000E-01  6.4119354755333E-01  1.6517642494863E+00  4.1007127135083E-01
73  7.2000000000000E-01  5.9988800634134E-01  1.6231837905485E+00  3.8992517336873E-01
74  7.3000000000000E-01  5.5966291378361E-01  1.5824896115620E+00  3.7634528325032E-01
75  7.4000000000000E-01  5.2057514214446E-01  1.5296061623288E+00  3.7020179724737E-01
76  7.5000000000000E-01  4.8267290610936E-01  1.4645663258956E+00  3.7225793509340E-01
77  7.6000000000000E-01  4.4599664144274E-01  1.3875231819943E+00  3.8314821712622E-01
78  7.7000000000000E-01  4.1057991425872E-01  1.2987608789960E+00  4.0335796793974E-01
79  7.8000000000000E-01  3.7645033594903E-01  1.1987041456634E+00  4.3320464641958E-01
80  7.9000000000000E-01  3.4363045904744E-01  1.0879259786243E+00  4.7282159258813E-01
81  8.0000000000000E-01  3.1213863019036E-01  9.6715306212233E-01  5.2214475412640E-01
82  8.1000000000000E-01  2.8198977784869E-01  8.3726851309901E-01  5.8090290992602E-01
83  8.2000000000000E-01  2.5319611462381E-01  6.9931159634792E-01  6.4861184532755E-01
84  8.3000000000000E-01  2.2576773657149E-01  5.5447412014157E-01  7.2457285519024E-01
85  8.4000000000000E-01  1.9971310517024E-01  4.0409330063092E-01  8.0787585854613E-01
86  8.5000000000000E-01  1.7503940110183E-01  2.4964097126142E-01  8.9740730477307E-01
87  8.6000000000000E-01  1.5175274285846E-01  9.2709108820792E-02  9.9186293889662E-01
88  8.7000000000000E-01  1.2985826722334E-01 -6.5008252395216E-02  1.0897653760606E+00
89  8.8000000000000E-01  1.0936007276805E-01 -2.2173654563721E-01  1.1894863159631E+00
90  8.9000000000000E-01  9.0261031545106E-02 -3.7564536415134E-01  1.2892731108381E+00
91  9.0000000000000E-01  7.2562478003798E-02 -5.2487595540581E-01  1.3872792891383E+00
92  9.1000000000000E-01  5.6263787695849E-02 -6.6757106633863E-01  1.4815985351126E+00
93  9.2000000000000E-01  4.1361861452101E-02 -8.0190661547443E-01  1.5703015354593E+00
94  9.3000000000000E-01  2.7850533295727E-02 -9.2612460888857E-01  1.6514750312957E+00
95  9.4000000000000E-01  1.5719922322807E-02 -1.0385666750515E+00  1.7232623595628E+00
96  9.5000000000000E-01  4.9557500564238E-03 -1.1377075704366E+00  1.7839047347968E+00
97  9.6000000000000E-01 -4.4613546858661E-03 -1.2221880047676E+00  1.8317825115411E+00
98  9.7000000000000E-01 -1.2556541605447E-02 -1.2908461525780E+00  1.8654556803415E+00
99  9.8000000000000E-01 -1.9361394616619E-02 -1.3427472563862E+00  1.8837028863877E+00
100  9.9000000000000E-01 -2.4914538374460E-02 -1.3772107855517E+00  1.8855583187416E+00
101  1.0000000000000E+00 -2.9262179045473E-02 -1.3938346924460E+00  1.8703458983472E+00
102  1.0100000000000E+00 -3.2458565815112E-02 -1.3925164018847E+00  1.8377102924434E+00