Pa    ONCVPSP-4.0.1  r_core=   1.25016   1.25016   1.45183   1.45183
91.0000     31.0000      220205    zatom,zion,pspd
8      11   3     4   600     0    pspcod,pspxc,lmax,lloc,mmax,r2well
5.99000000  5.00000000  0.00000000    rchrg fchrg qchrg
3     2     2     2     0    nproj
1     1           extension_switch
0                         2.1645221428385E+01  3.2903301606728E+00 -9.7010103252057E-01
1  0.0000000000000E+00 -4.0423284719537E-08  8.1126605877557E-08 -6.2713703763428E-07
2  1.0000000000000E-02  1.1720452029847E-01 -3.6125402982580E-02  1.8243073729303E-01
3  2.0000000000000E-02  2.3373636783641E-01 -7.1439031726156E-02  3.5949182050994E-01
4  3.0000000000000E-02  3.4893390403760E-01 -1.0514957222310E-01  5.2598189891768E-01
5  4.0000000000000E-02  4.6215722833743E-01 -1.3650597328337E-01  6.7703088369692E-01
6  5.0000000000000E-02  5.7279823230250E-01 -1.6481595592693E-01  8.0825238699973E-01
7  6.0000000000000E-02  6.8028970633676E-01 -1.8946263748666E-01  9.1588080141760E-01
8  7.0000000000000E-02  7.8411323283007E-01 -2.0991874167753E-01  9.9688866844614E-01
9  8.0000000000000E-02  8.8380564002778E-01 -2.2575794701484E-01  1.0490806116701E+00
10  9.0000000000000E-02  9.7896383883515E-01 -2.3666302214358E-01  1.0711608560749E+00
11  1.0000000000000E-01  1.0692479186133E+00 -2.4243050464513E-01  1.0627721954189E+00
12  1.1000000000000E-01  1.1543824359734E+00 -2.4297179608701E-01  1.0245051782436E+00
13  1.2000000000000E-01  1.2341558906936E+00 -2.3831066657114E-01  9.5787723097017E-01
14  1.3000000000000E-01  1.3084184431473E+00 -2.2857728275743E-01  8.6528239345063E-01
15  1.4000000000000E-01  1.3770779860270E+00 -2.1399899022719E-01  7.4991327787080E-01
16  1.5000000000000E-01  1.4400947377034E+00 -1.9488819015468E-01  6.1565774622240E-01
17  1.6000000000000E-01  1.4974745734351E+00 -1.7162774788693E-01  4.6697360650177E-01
18  1.7000000000000E-01  1.5492613521966E+00 -1.4465445387862E-01  3.0874532767794E-01
19  1.8000000000000E-01  1.5955285296957E+00 -1.1444112266742E-01  1.4612734595106E-01
20  1.9000000000000E-01  1.6363703711019E+00 -8.1477960975439E-02 -1.5621038383416E-02
21  2.0000000000000E-01  1.6718930892916E+00 -4.6253860007793E-02 -1.7130390672129E-01
22  2.1000000000000E-01  1.7022062356217E+00 -9.2382687411979E-03 -3.1595474435198E-01
23  2.2000000000000E-01  1.7274146602754E+00  2.9135715655036E-02 -4.4499494452515E-01
24  2.3000000000000E-01  1.7476113384149E+00  6.8486446494677E-02 -5.5437974045362E-01
25  2.4000000000000E-01  1.7628713273841E+00  1.0849648428538E-01 -6.4072691324636E-01
26  2.5000000000000E-01  1.7732470800532E+00  1.4892256138518E-01 -7.0142417418855E-01
27  2.6000000000000E-01  1.7787652914140E+00  1.8960240105298E-01 -7.3471180114672E-01
28  2.7000000000000E-01  1.7794254013163E+00  2.3045814621070E-01 -7.3973789939985E-01
29  2.8000000000000E-01  1.7751998175970E+00  2.7149627077897E-01 -7.1658453162155E-01
30  2.9000000000000E-01  1.7660358627545E+00  3.1280396869812E-01 -6.6626389204219E-01
31  3.0000000000000E-01  1.7518593858317E+00  3.5454213856947E-01 -5.9068465625088E-01
32  3.1000000000000E-01  1.7325799213553E+00  3.9693520107311E-01 -4.9258958996772E-01
33  3.2000000000000E-01  1.7080972210807E+00  4.4025809787765E-01 -3.7546641693538E-01
34  3.3000000000000E-01  1.6783089338124E+00  4.8482092083772E-01 -2.4343479844040E-01
35  3.4000000000000E-01  1.6431191654499E+00  5.3095170543526E-01 -1.0111303754603E-01
36  3.5000000000000E-01  1.6024476171286E+00  5.7897798971591E-01  4.6531234468932E-02
37  3.6000000000000E-01  1.5562389750874E+00  6.2920778705560E-01  1.9434162435023E-01
38  3.7000000000000E-01  1.5044722125618E+00  6.8191064629146E-01  3.3713967605905E-01
39  3.8000000000000E-01  1.4471694620662E+00  7.3729947514157E-01  4.6989239283202E-01
40  3.9000000000000E-01  1.3844041260147E+00  7.9551378225609E-01  5.8787525190361E-01
41  4.0000000000000E-01  1.3163079144565E+00  8.5660495032043E-01  6.8682553219607E-01
42  4.1000000000000E-01  1.2430765301189E+00  9.2052408875137E-01  7.6308109136504E-01
43  4.2000000000000E-01  1.1649737619448E+00  9.8711293180330E-01  8.1370019975526E-01
44  4.3000000000000E-01  1.0823337975460E+00  1.0560981490845E+00  8.3655864961760E-01
45  4.4000000000000E-01  9.9556162083310E-01  1.1270893238924E+00  8.3042108833560E-01
46  4.5000000000000E-01  9.0513142170218E-01  1.1995807341650E+00  7.9498435058498E-01
47  4.6000000000000E-01  8.1158300801446E-01  1.2729569452926E+00  7.3089145932735E-01
48  4.7000000000000E-01  7.1551627410966E-01  1.3465020977887E+00  6.3971590024323E-01
49  4.8000000000000E-01  6.1758384259492E-01  1.4194126501725E+00  5.2391671825496E-01
50  4.9000000000000E-01  5.1848205506678E-01  1.4908132225226E+00  3.8676590762185E-01
51  5.0000000000000E-01  4.1894054078169E-01  1.5597750829444E+00  2.3225043891670E-01
52  5.1000000000000E-01  3.1971063831045E-01  1.6253367311484E+00  6.4952058985467E-02
53  5.2000000000000E-01  2.2155298235904E-01  1.6865259634555E+00 -1.1009131157208E-01
54  5.3000000000000E-01  1.2522459498302E-01  1.7423827541979E+00 -2.8753819659552E-01
55  5.4000000000000E-01  3.1465836477181E-02  1.7919822613174E+00 -4.6190539288325E-01
56  5.5000000000000E-01 -5.9012424224337E-02  1.8344572598711E+00 -6.2773394163890E-01
57  5.6000000000000E-01 -1.4554106686755E-01  1.8690193262296E+00 -7.7975407739750E-01
58  5.7000000000000E-01 -2.2750407055541E-01  1.8949781372773E+00 -9.1304405705096E-01
59  5.8000000000000E-01 -3.0434865250089E-01  1.9117583114153E+00 -1.0231780023238E+00
60  5.9000000000000E-01 -3.7559392830552E-01  1.9189132994073E+00 -1.1063582737026E+00
61  6.0000000000000E-01 -4.4083787423420E-01  1.9161359302405E+00 -1.1595284185731E+00
62  6.1000000000000E-01 -4.9976242563669E-01  1.9032653267846E+00 -1.1804633828122E+00
63  6.2000000000000E-01 -5.5213660415154E-01  1.8802900243075E+00 -1.1678344210858E+00
64  6.3000000000000E-01 -5.9781762760771E-01  1.8473472477107E+00 -1.1212469612397E+00
65  6.4000000000000E-01 -6.3675001852221E-01  1.8047184264445E+00 -1.0412505448161E+00
66  6.5000000000000E-01 -6.6896278767634E-01  1.7528211451906E+00 -9.2932085002685E-01
67  6.6000000000000E-01 -6.9456482640177E-01  1.6921978394871E+00 -7.8781467622755E-01
68  6.7000000000000E-01 -7.1373869301931E-01  1.6235016447391E+00 -6.1989960158702E-01
69  6.8000000000000E-01 -7.2673302365430E-01  1.5474798911767E+00 -4.2946079142300E-01
70  6.9000000000000E-01 -7.3385383396473E-01  1.4649558035221E+00 -2.2098810925907E-01
71  7.0000000000000E-01 -7.3545500504282E-01  1.3768090102918E+00  5.5275481026436E-04
72  7.1000000000000E-01 -7.3192826311327E-01  1.2839554924060E+00  2.2986099027382E-01
73  7.2000000000000E-01 -7.2369296825387E-01  1.1873276034971E+00  4.6144876634097E-01
74  7.3000000000000E-01 -7.1118602219574E-01  1.0878547751839E+00  6.8979214173714E-01
75  7.4000000000000E-01 -6.9485218968717E-01  9.8644548057084E-01  9.0948020684640E-01
76  7.5000000000000E-01 -6.7513510266592E-01  8.8397097004840E-01  1.1153580357875E+00
77  7.6000000000000E-01 -6.5246918264718E-01  7.8125121747935E-01  1.3026593209128E+00
78  7.7000000000000E-01 -6.2727267565639E-01  6.7904342500366E-01  1.4671249846789E+00
79  7.8000000000000E-01 -5.9994194732307E-01  5.7803333440542E-01  1.6051045972058E+00
80  7.9000000000000E-01 -5.7084713517398E-01  4.7882948599263E-01  1.7136380521221E+00
81  8.0000000000000E-01 -5.4032920261335E-01  3.8196045619675E-01  1.7905156456321E+00
82  8.1000000000000E-01 -5.0869838647167E-01  2.8787499657047E-01  1.8343154395995E+00
83  8.2000000000000E-01 -4.7623397924250E-01  1.9694489344492E-01  1.8444175430497E+00
84  8.3000000000000E-01 -4.4318533999268E-01  1.0947027282228E-01  1.8209956921984E+00
85  8.4000000000000E-01 -4.0977398605052E-01  2.5686992385556E-02  1.7649872219339E+00
86  8.5000000000000E-01 -3.7619658234768E-01 -5.4224305435068E-02  1.6780431782939E+00
87  8.6000000000000E-01 -3.4262861784037E-01 -1.3012795641808E-01  1.5624609009305E+00
88  8.7000000000000E-01 -3.0922853958351E-01 -2.0192236319072E-01  1.4211018889140E+00
89  8.8000000000000E-01 -2.7614210526297E-01 -2.6952893255607E-01  1.2572981380774E+00
90  8.9000000000000E-01 -2.4350671444890E-01 -3.3288137852722E-01  1.0747503929186E+00
91  9.0000000000000E-01 -2.1145548731989E-01 -3.9191588340812E-01  8.7742188443954E-01
92  9.1000000000000E-01 -1.8012087659916E-01 -4.4656256718680E-01  6.6943112490928E-01
93  9.2000000000000E-01 -1.4963762312502E-01 -4.9673865794341E-01  4.5494720309448E-01
94  9.3000000000000E-01 -1.2014489676904E-01 -5.4234368536034E-01  2.3809077450699E-01
95  9.4000000000000E-01 -9.1787501043673E-02 -5.8325693858342E-01  2.2843579394780E-02
96  9.5000000000000E-01 -6.4716060276325E-02 -6.1933734175402E-01 -1.8703114187670E-01
97  9.6000000000000E-01 -3.9086151154800E-02 -6.5042580879867E-01 -3.8805551697857E-01
98  9.7000000000000E-01 -1.5056384246904E-02 -6.7635004680387E-01 -5.7708999726813E-01
99  9.8000000000000E-01  7.2145157304589E-03 -6.9693168771510E-01 -7.5137188428828E-01
100  9.9000000000000E-01  2.7571540917065E-02 -7.1199554404023E-01 -9.0853963074847E-01
101  1.0000000000000E+00  4.5868014594022E-02 -7.2138070825407E-01 -1.0466438655831E+00
102  1.0100000000000E+00  6.1970826864819E-02 -7.2495314968176E-01 -1.1641468509893E+00
103  1.0200000000000E+00  7.5766100794259E-02 -7.2261940820773E-01 -1.2599128380686E+00
104  1.0300000000000E+00  8.7165074166358E-02 -7.1434094185955E-01 -1.3331925395937E+00
105  1.0400000000000E+00  9.6109963360228E-02 -7.0014865524618E-01 -1.3836056762928E+00
106  1.0500000000000E+00  1.0257956203623E-01 -6.8015711709700E-01 -1.4111262752077E+00
107  1.0600000000000E+00  1.0659431767254E-01 -6.5457796622174E-01 -1.4160761081993E+00
108  1.0700000000000E+00  1.0822062245502E-01 -6.2373200375565E-01 -1.3991323578031E+00
109  1.0800000000000E+00  1.0757405016314E-01 -5.8805947247182E-01 -1.3613562973580E+00
110  1.0900000000000E+00  1.0482126654460E-01 -5.4812803065848E-01 -1.3042505142416E+00
111  1.1000000000000E+00  1.0018031424716E-01 -5.0463784869805E-01 -1.2298522561684E+00
112  1.1100000000000E+00  9.3918746868247E-02 -4.5842237669418E-01 -1.1408638564115E+00
113  1.1200000000000E+00  8.6341075025615E-02 -4.1041020520187E-01 -1.0405189934791E+00
114  1.1300000000000E+00  7.7768061850907E-02 -3.6155424849463E-01 -9.3212707820109E-01
115  1.1400000000000E+00  6.8527194291784E-02 -3.1280506152129E-01 -8.1893134191030E-01
116  1.1500000000000E+00  5.8945346399094E-02 -2.6509394215528E-01 -7.0405879877318E-01
117  1.1600000000000E+00  4.9340978376938E-02 -2.1931504029408E-01 -5.9047627905281E-01
118  1.1700000000000E+00  4.0016104250451E-02 -1.7630701847309E-01 -4.8095299852852E-01
119  1.1800000000000E+00  3.1248223726354E-02 -1.3683469575806E-01 -3.7802975026104E-01
120  1.1900000000000E+00  2.3279425726863E-02 -1.0156412770571E-01 -2.8400431063563E-01
121  1.2000000000000E+00  1.6269833998784E-02 -7.0952387577994E-02 -2.0103975704868E-01
122  1.2100000000000E+00  1.0391793462498E-02 -4.5470250795378E-02 -1.3082361799126E-01
123  1.2200000000000E+00  5.7871921042708E-03 -2.5505748214108E-02 -7.4680059007840E-02
124  1.2300000000000E+00  2.5298153047585E-03 -1.1276865193631E-02 -3.3682751229698E-02
125  1.2400000000000E+00  6.1781690140793E-04 -2.7974625299091E-03 -8.5435878756978E-03
126  1.2500000000000E+00  2.0325383227493E-06 -9.3530366373129E-06 -2.9076330432800E-05
127  1.2600000000000E+00  4.3982628105306E-06 -2.0216448390883E-05 -6.2947251803899E-05
128  1.2700000000000E+00 -7.7287312788775E-07  3.5197397212220E-06  1.0829519319501E-05
129  1.28 -0.  0. -0.
130  1.29  0.  0.  0.
131  1.30  0.  0.  0.
132  1.31  0.  0.  0.
133  1.32  0.  0.  0.
134  1.33  0.  0.  0.
135  1.34  0.  0.  0.
136  1.35  0.  0.  0.
137  1.36  0.  0.  0.
138  1.37  0.  0.  0.
139  1.38  0.  0.  0.
140  1.39  0.  0.  0.
141  1.40  0.  0.  0.
142  1.41  0.  0.  0.
143  1.42  0.  0.  0.
144  1.43  0.  0.  0.
145  1.44  0.  0.  0.
146  1.45  0.  0.  0.
147  1.46  0.  0.  0.
148  1.47  0.  0.  0.
149  1.48  0.  0.  0.
150  1.49  0.  0.  0.
151  1.50  0.  0.  0.
152  1.51  0.  0.  0.
153  1.52  0.  0.  0.
154  1.53  0.  0.  0.
155  1.54  0.  0.  0.
156  1.55  0.  0.  0.
157  1.56  0.  0.  0.
158  1.57  0.  0.  0.
159  1.58  0.  0.  0.
160  1.59  0.  0.  0.
161  1.60  0.  0.  0.
162  1.61  0.  0.  0.
163  1.62  0.  0.  0.
164  1.63  0.  0.  0.
165  1.64  0.  0.  0.
166  1.65  0.  0.  0.
167  1.66  0.  0.  0.
168  1.67  0.  0.  0.
169  1.68  0.  0.  0.
170  1.69  0.  0.  0.
171  1.70  0.  0.  0.
172  1.71  0.  0.  0.
173  1.72  0.  0.  0.
174  1.73  0.  0.  0.
175  1.74  0.  0.  0.
176  1.75  0.  0.  0.
177  1.76  0.  0.  0.
178  1.77  0.  0.  0.
179  1.78  0.  0.  0.
180  1.79  0.  0.  0.
181  1.80  0.  0.  0.
182  1.81  0.  0.  0.
183  1.82  0.  0.  0.
184  1.83  0.  0.  0.
185  1.84  0.  0.  0.
186  1.85  0.  0.  0.
187  1.86  0.  0.  0.
188  1.87  0.  0.  0.
189  1.88  0.  0.  0.
190  1.89  0.  0.  0.
191  1.90  0.  0.  0.
192  1.91  0.  0.  0.
193  1.92  0.  0.  0.
194  1.93  0.  0.  0.
195  1.94  0.  0.  0.
196  1.95  0.  0.  0.
197  1.96  0.  0.  0.
198  1.97  0.  0.  0.
199  1.98  0.  0.  0.
200  1.99  0.  0.  0.
201  2.00  0.  0.  0.
202  2.01  0.  0.  0.
203  2.02  0.  0.  0.
204  2.03  0.  0.  0.
205  2.04  0.  0.  0.
206  2.05  0.  0.  0.
207  2.06  0.  0.  0.
208  2.07  0.  0.  0.
209  2.08  0.  0.  0.
210  2.09  0.  0.  0.
211  2.10  0.  0.  0.
212  2.11  0.  0.  0.
213  2.12  0.  0.  0.
214  2.13  0.  0.  0.
215  2.14  0.  0.  0.
216  2.15  0.  0.  0.
217  2.16  0.  0.  0.
218  2.17  0.  0.  0.
219  2.18  0.  0.  0.
220  2.19  0.  0.  0.
221  2.20  0.  0.  0.
222  2.21  0.  0.  0.
223  2.22  0.  0.  0.
224  2.23  0.  0.  0.
225  2.24  0.  0.  0.
226  2.25  0.  0.  0.
227  2.26  0.  0.  0.
228  2.27  0.  0.  0.
229  2.28  0.  0.  0.
230  2.29  0.  0.  0.
231  2.30  0.  0.  0.
232  2.31  0.  0.  0.
233  2.32  0.  0.  0.
234  2.33  0.  0.  0.
235  2.34  0.  0.  0.
236  2.35  0.  0.  0.
237  2.36  0.  0.  0.
238  2.37  0.  0.  0.
239  2.38  0.  0.  0.
240  2.39  0.  0.  0.
241  2.40  0.  0.  0.
242  2.41  0.  0.  0.
243  2.42  0.  0.  0.
244  2.43  0.  0.  0.
245  2.44  0.  0.  0.
246  2.45  0.  0.  0.
247  2.46  0.  0.  0.
248  2.47  0.  0.  0.
249  2.48  0.  0.  0.
250  2.49  0.  0.  0.
251  2.50  0.  0.  0.
252  2.51  0.  0.  0.
253  2.52  0.  0.  0.
254  2.53  0.  0.  0.
255  2.54  0.  0.  0.
256  2.55  0.  0.  0.
257  2.56  0.  0.  0.
258  2.57  0.  0.  0.
259  2.58  0.  0.  0.
260  2.59  0.  0.  0.
261  2.60  0.  0.  0.
262  2.61  0.  0.  0.
263  2.62  0.  0.  0.
264  2.63  0.  0.  0.
265  2.64  0.  0.  0.
266  2.65  0.  0.  0.
267  2.66  0.  0.  0.
268  2.67  0.  0.  0.
269  2.68  0.  0.  0.
270  2.69  0.  0.  0.
271  2.70  0.  0.  0.
272  2.71  0.  0.  0.
273  2.72  0.  0.  0.
274  2.73  0.  0.  0.
275  2.74  0.  0.  0.
276  2.75  0.  0.  0.
277  2.76  0.  0.  0.
278  2.77  0.  0.  0.
279  2.78  0.  0.  0.
280  2.79  0.  0.  0.
281  2.80  0.  0.  0.
282  2.81  0.  0.  0.
283  2.82  0.  0.  0.
284  2.83  0.  0.  0.
285  2.84  0.  0.  0.
286  2.85  0.  0.  0.
287  2.86  0.  0.  0.
288  2.87  0.  0.  0.
289  2.88  0.  0.  0.
290  2.89  0.  0.  0.
291  2.90  0.  0.  0.
292  2.91  0.  0.  0.
293  2.92  0.  0.  0.
294  2.93  0.  0.  0.
295  2.94  0.  0.  0.
296  2.95  0.  0.  0.
297  2.96  0.  0.  0.
298  2.97  0.  0.  0.
299  2.98  0.  0.  0.
300  2.99  0.  0.  0.
301  3.00  0.  0.  0.
302  3.01  0.  0.  0.
303  3.02  0.  0.  0.
304  3.03  0.  0.  0.
305  3.04  0.  0.  0.
306  3.05  0.  0.  0.
307  3.06  0.  0.  0.
308  3.07  0.  0.  0.
309  3.08  0.  0.  0.
310  3.09  0.  0.  0.
311  3.10  0.  0.  0.
312  3.11  0.  0.  0.
313  3.12  0.  0.  0.
314  3.13  0.  0.  0.
315  3.14  0.  0.  0.
316  3.15  0.  0.  0.
317  3.16  0.  0.  0.
318  3.17  0.  0.  0.
319  3.18  0.  0.  0.
320  3.19  0.  0.  0.
321  3.20  0.  0.  0.
322  3.21  0.  0.  0.
323  3.22  0.  0.  0.
324  3.23  0.  0.  0.
325  3.24  0.  0.  0.
326  3.25  0.  0.  0.
327  3.26  0.  0.  0.
328  3.27  0.  0.  0.
329  3.28  0.  0.  0.
330  3.29  0.  0.  0.
331  3.30  0.  0.  0.
332  3.31  0.  0.  0.
333  3.32  0.  0.  0.
334  3.33  0.  0.  0.
335  3.34  0.  0.  0.
336  3.35  0.  0.  0.
337  3.36  0.  0.  0.
338  3.37  0.  0.  0.
339  3.38  0.  0.  0.
340  3.39  0.  0.  0.
341  3.40  0.  0.  0.
342  3.41  0.  0.  0.
343  3.42  0.  0.  0.
344  3.43  0.  0.  0.
345  3.44  0.  0.  0.
346  3.45  0.  0.  0.
347  3.46  0.  0.  0.
348  3.47  0.  0.  0.
349  3.48  0.  0.  0.
350  3.49  0.  0.  0.
351  3.50  0.  0.  0.
352  3.51  0.  0.  0.
353  3.52  0.  0.  0.
354  3.53  0.  0.  0.
355  3.54  0.  0.  0.
356  3.55  0.  0.  0.
357  3.56  0.  0.  0.
358  3.57  0.  0.  0.
359  3.58  0.  0.  0.
360  3.59  0.  0.  0.
361  3.60  0.  0.  0.
362  3.61  0.  0.  0.
363  3.62  0.  0.  0.
364  3.63  0.  0.  0.
365  3.64  0.  0.  0.
366  3.65  0.  0.  0.
367  3.66  0.  0.  0.
368  3.67  0.  0.  0.
369  3.68  0.  0.  0.
370  3.69  0.  0.  0.
371  3.70  0.  0.  0.
372  3.71  0.  0.  0.
373  3.72  0.  0.  0.
374  3.73  0.  0.  0.
375  3.74  0.  0.  0.
376  3.75  0.  0.  0.
377  3.76  0.  0.  0.
378  3.77  0.  0.  0.
379  3.78  0.  0.  0.
380  3.79  0.  0.  0.
381  3.80  0.  0.  0.
382  3.81  0.  0.  0.
383  3.82  0.  0.  0.
384  3.83  0.  0.  0.
385  3.84  0.  0.  0.
386  3.85  0.  0.  0.
387  3.86  0.  0.  0.
388  3.87  0.  0.  0.
389  3.88  0.  0.  0.
390  3.89  0.  0.  0.
391  3.90  0.  0.  0.
392  3.91  0.  0.  0.
393  3.92  0.  0.  0.
394  3.93  0.  0.  0.
395  3.94  0.  0.  0.
396  3.95  0.  0.  0.
397  3.96  0.  0.  0.
398  3.97  0.  0.  0.
399  3.98  0.  0.  0.
400  3.99  0.  0.  0.
401  4.00  0.  0.  0.
402  4.01  0.  0.  0.
403  4.02  0.  0.  0.
404  4.03  0.  0.  0.
405  4.04  0.  0.  0.
406  4.05  0.  0.  0.
407  4.06  0.  0.  0.
408  4.07  0.  0.  0.
409  4.08  0.  0.  0.
410  4.09  0.  0.  0.
411  4.10  0.  0.  0.
412  4.11  0.  0.  0.
413  4.12  0.  0.  0.
414  4.13  0.  0.  0.
415  4.14  0.  0.  0.
416  4.15  0.  0.  0.
417  4.16  0.  0.  0.
418  4.17  0.  0.  0.
419  4.18  0.  0.  0.
420  4.19  0.  0.  0.
421  4.20  0.  0.  0.
422  4.21  0.  0.  0.
423  4.22  0.  0.  0.
424  4.23  0.  0.  0.
425  4.24  0.  0.  0.
426  4.25  0.  0.  0.
427  4.26  0.  0.  0.
428  4.27  0.  0.  0.
429  4.28  0.  0.  0.
430  4.29  0.  0.  0.
431  4.30  0.  0.  0.
432  4.31  0.  0.  0.
433  4.32  0.  0.  0.
434  4.33  0.  0.  0.
435  4.34  0.  0.  0.
436  4.35  0.  0.  0.
437  4.36  0.  0.  0.
438  4.37  0.  0.  0.
439  4.38  0.  0.  0.
440  4.39  0.  0.  0.
441  4.40  0.  0.  0.
442  4.41  0.  0.  0.
443  4.42  0.  0.  0.
444  4.43  0.  0.  0.
445  4.44  0.  0.  0.
446  4.45  0.  0.  0.
447  4.46  0.  0.  0.
448  4.47  0.  0.  0.
449  4.48  0.  0.  0.
450  4.49  0.  0.  0.
451  4.50  0.  0.  0.
452  4.51  0.  0.  0.
453  4.52  0.  0.  0.
454  4.53  0.  0.  0.
455  4.54  0.  0.  0.
456  4.55  0.  0.  0.
457  4.56  0.  0.  0.
458  4.57  0.  0.  0.
459  4.58  0.  0.  0.
460  4.59  0.  0.  0.
461  4.60  0.  0.  0.
462  4.61  0.  0.  0.
463  4.62  0.  0.  0.
464  4.63  0.  0.  0.
465  4.64  0.  0.  0.
466  4.65  0.  0.  0.
467  4.66  0.  0.  0.
468  4.67  0.  0.  0.
469  4.68  0.  0.  0.
470  4.69  0.  0.  0.
471  4.70  0.  0.  0.
472  4.71  0.  0.  0.
473  4.72  0.  0.  0.
474  4.73  0.  0.  0.
475  4.74  0.  0.  0.
476  4.75  0.  0.  0.
477  4.76  0.  0.  0.
478  4.77  0.  0.  0.
479  4.78  0.  0.  0.
480  4.79  0.  0.  0.
481  4.80  0.  0.  0.
482  4.81  0.  0.  0.
483  4.82  0.  0.  0.
484  4.83  0.  0.  0.
485  4.84  0.  0.  0.
486  4.85  0.  0.  0.
487  4.86  0.  0.  0.
488  4.87  0.  0.  0.
489  4.88  0.  0.  0.
490  4.89  0.  0.  0.
491  4.90  0.  0.  0.
492  4.91  0.  0.  0.
493  4.92  0.  0.  0.
494  4.93  0.  0.  0.
495  4.94  0.  0.  0.
496  4.95  0.  0.  0.
497  4.96  0.  0.  0.
498  4.97  0.  0.  0.
499  4.98  0.  0.  0.
500  4.99  0.  0.  0.
501  5.00  0.  0.  0.
502  5.01  0.  0.  0.
503  5.02  0.  0.  0.
504  5.03  0.  0.  0.
505  5.04  0.  0.  0.
506  5.05  0.  0.  0.
507  5.06  0.  0.  0.
508  5.07  0.  0.  0.
509  5.08  0.  0.  0.
510  5.09  0.  0.  0.
511  5.10  0.  0.  0.
512  5.11  0.  0.  0.
513  5.12  0.  0.  0.
514  5.13  0.  0.  0.
515  5.14  0.  0.  0.
516  5.15  0.  0.  0.
517  5.16  0.  0.  0.
518  5.17  0.  0.  0.
519  5.18  0.  0.  0.
520  5.19  0.  0.  0.
521  5.20  0.  0.  0.
522  5.21  0.  0.  0.
523  5.22  0.  0.  0.
524  5.23  0.  0.  0.
525  5.24  0.  0.  0.
526  5.25  0.  0.  0.
527  5.26  0.  0.  0.
528  5.27  0.  0.  0.
529  5.28  0.  0.  0.
530  5.29  0.  0.  0.
531  5.30  0.  0.  0.
532  5.31  0.  0.  0.
533  5.32  0.  0.  0.
534  5.33  0.  0.  0.
535  5.34  0.  0.  0.
536  5.35  0.  0.  0.
537  5.36  0.  0.  0.
538  5.37  0.  0.  0.
539  5.38  0.  0.  0.
540  5.39  0.  0.  0.
541  5.40  0.  0.  0.
542  5.41  0.  0.  0.
543  5.42  0.  0.  0.
544  5.43  0.  0.  0.
545  5.44  0.  0.  0.
546  5.45  0.  0.  0.
547  5.46  0.  0.  0.
548  5.47  0.  0.  0.
549  5.48  0.  0.  0.
550  5.49  0.  0.  0.
551  5.50  0.  0.  0.
552  5.51  0.  0.  0.
553  5.52  0.  0.  0.
554  5.53  0.  0.  0.
555  5.54  0.  0.  0.
556  5.55  0.  0.  0.
557  5.56  0.  0.  0.
558  5.57  0.  0.  0.
559  5.58  0.  0.  0.
560  5.59  0.  0.  0.
561  5.60  0.  0.  0.
562  5.61  0.  0.  0.
563  5.62  0.  0.  0.
564  5.63  0.  0.  0.
565  5.64  0.  0.  0.
566  5.65  0.  0.  0.
567  5.66  0.  0.  0.
568  5.67  0.  0.  0.
569  5.68  0.  0.  0.
570  5.69  0.  0.  0.
571  5.70  0.  0.  0.
572  5.71  0.  0.  0.
573  5.72  0.  0.  0.
574  5.73  0.  0.  0.
575  5.74  0.  0.  0.
576  5.75  0.  0.  0.
577  5.76  0.  0.  0.
578  5.77  0.  0.  0.
579  5.78  0.  0.  0.
580  5.79  0.  0.  0.
581  5.80  0.  0.  0.
582  5.81  0.  0.  0.
583  5.82  0.  0.  0.
584  5.83  0.  0.  0.
585  5.84  0.  0.  0.
586  5.85  0.  0.  0.
587  5.86  0.  0.  0.
588  5.87  0.  0.  0.
589  5.88  0.  0.  0.
590  5.89  0.  0.  0.
591  5.90  0.  0.  0.
592  5.91  0.  0.  0.
593  5.92  0.  0.  0.
594  5.93  0.  0.  0.
595  5.94  0.  0.  0.
596  5.95  0.  0.  0.
597  5.96  0.  0.  0.
598  5.97  0.  0.  0.
599  5.98  0.  0.  0.
600  5.99  0.  0.  0.
1                         1.5756332848251E+01  2.2658199097607E+00
1  0.0000000000000E+00 -3.3423950773770E-08  6.6058272209929E-08
2  1.0000000000000E-02  2.8814481913177E-03  4.1757291607528E-04
3  2.0000000000000E-02  1.1520991717637E-02  1.6434877368084E-03
4  3.0000000000000E-02  2.5903693112214E-02  3.5985658695122E-03
5  4.0000000000000E-02  4.6002898051776E-02  6.1549094263647E-03
6  5.0000000000000E-02  7.1777675651124E-02  9.1418476283916E-03
7  6.0000000000000E-02  1.0316938839906E-01  1.2353960462486E-02
8  7.0000000000000E-02  1.4009753904112E-01  1.5560890212289E-02
9  8.0000000000000E-02  1.8245507513853E-01  1.8518585425470E-02
10  9.0000000000000E-02  2.3010335933618E-01  2.0981567566083E-02
11  1.0000000000000E-01  2.8286703359948E-01  2.2715769865531E-02
12  1.1000000000000E-01  3.4052901809946E-01  2.3511472136227E-02
13  1.2000000000000E-01  4.0282588955262E-01  2.3195845480147E-02
14  1.3000000000000E-01  4.6944387943706E-01  2.1644627336928E-02
15  1.4000000000000E-01  5.4001571966132E-01  1.8792470078592E-02
16  1.5000000000000E-01  6.1411854228227E-01  1.4641544753282E-02
17  1.6000000000000E-01  6.9127301134214E-01  9.2680344870736E-03
18  1.7000000000000E-01  7.7094382965938E-01  2.8262178741633E-03
19  1.8000000000000E-01  8.5254172252388E-01 -4.4500806009933E-03
20  1.9000000000000E-01  9.3542695496681E-01 -1.2248810852343E-02
21  2.0000000000000E-01  1.0189143910058E+00 -2.0183834905073E-02
22  2.1000000000000E-01  1.1022800535268E+00 -2.7801834800517E-02
23  2.2000000000000E-01  1.1847690938386E+00 -3.4591849622239E-02
24  2.3000000000000E-01  1.2656050320261E+00 -3.9997209892564E-02
25  2.4000000000000E-01  1.3440000845999E+00 -4.3429553055198E-02
26  2.5000000000000E-01  1.4191663560753E+00 -4.4284528196710E-02
27  2.6000000000000E-01  1.4903276373676E+00 -4.1958734141289E-02
28  2.7000000000000E-01  1.5567315274348E+00 -3.5867384814080E-02
29  2.8000000000000E-01  1.6176615764026E+00 -2.5462161133729E-02
30  2.9000000000000E-01  1.6724491391713E+00 -1.0248691012216E-02
31  3.0000000000000E-01  1.7204846286867E+00  1.0196900865172E-02
32  3.1000000000000E-01  1.7612278677912E+00  3.6212913668745E-02
33  3.2000000000000E-01  1.7942172577129E+00  6.8038965776846E-02
34  3.3000000000000E-01  1.8190775093497E+00  1.0580531643715E-01
35  3.4000000000000E-01  1.8355257198151E+00  1.4952499717035E-01
36  3.5000000000000E-01  1.8433756202291E+00  1.9908905472788E-01
37  3.6000000000000E-01  1.8425398701961E+00  2.5426511473322E-01
38  3.7000000000000E-01  1.8330303283647E+00  3.1469937420106E-01
39  3.8000000000000E-01  1.8149562852696E+00  3.7992202505270E-01
40  3.9000000000000E-01  1.7885207025930E+00  4.4935600286023E-01
41  4.0000000000000E-01  1.7540145602311E+00  5.2232884879539E-01
42  4.1000000000000E-01  1.7118094673251E+00  5.9808737157814E-01
43  4.2000000000000E-01  1.6623487439447E+00  6.7581470345191E-01
44  4.3000000000000E-01  1.6061372247652E+00  7.5464926297808E-01
45  4.4000000000000E-01  1.5437300733709E+00  8.3370507054768E-01
46  4.5000000000000E-01  1.4757209244812E+00  9.1209281233588E-01
47  4.6000000000000E-01  1.4027296904261E+00  9.8894101686566E-01
48  4.7000000000000E-01  1.3253903768807E+00  1.0634166967179E+00
49  4.8000000000000E-01  1.2443392508048E+00  1.1347448169212E+00
50  4.9000000000000E-01  1.1602036906835E+00  1.2022259812186E+00
51  5.0000000000000E-01  1.0735920258063E+00  1.2652517771123E+00
52  5.1000000000000E-01  9.8508463811007E-01  1.3233172890400E+00
53  5.2000000000000E-01  8.9522655799579E-01  1.3760303743271E+00
54  5.3000000000000E-01  8.0452173578479E-01  1.4231173961842E+00
55  5.4000000000000E-01  7.1342911463984E-01  1.4644252189769E+00
56  5.5000000000000E-01  6.2236057058696E-01  1.4999193898647E+00
57  5.6000000000000E-01  5.3168072265796E-01  1.5296785539441E+00
58  5.7000000000000E-01  4.4170855315158E-01  1.5538852733031E+00
59  5.8000000000000E-01  3.5272071664950E-01  1.5728135398946E+00
60  5.9000000000000E-01  2.6495635875846E-01  1.5868133839073E+00
61  6.0000000000000E-01  1.7862321352796E-01  1.5962930795916E+00
62  6.1000000000000E-01  9.3904703897147E-02  1.6016995358421E+00
63  6.2000000000000E-01  1.0967733919877E-02  1.6034975262187E+00
64  6.3000000000000E-01 -7.0029163809174E-02  1.6021484600477E+00
65  6.4000000000000E-01 -1.4892767618920E-01  1.5980894209179E+00
66  6.5000000000000E-01 -2.2556190600833E-01  1.5917132001569E+00
67  6.6000000000000E-01 -2.9975125977240E-01  1.5833500303201E+00
68  6.7000000000000E-01 -3.7129434833318E-01  1.5732516777686E+00
69  6.8000000000000E-01 -4.3996418866929E-01  1.5615784851808E+00
70  6.9000000000000E-01 -5.0550495182605E-01  1.5483898662743E+00
71  7.0000000000000E-01 -5.6763044965782E-01  1.5336386486989E+00
72  7.1000000000000E-01 -6.2602449328684E-01  1.5171695402400E+00
73  7.2000000000000E-01 -6.8034319100085E-01  1.4987218618781E+00
74  7.3000000000000E-01 -7.3021918478794E-01  1.4779365530671E+00
75  7.4000000000000E-01 -7.7526775509554E-01  1.4543673142099E+00
76  7.5000000000000E-01 -8.1509465504047E-01  1.4274956133135E+00
77  7.6000000000000E-01 -8.4930547048813E-01  1.3967491527074E+00
78  7.7000000000000E-01 -8.7751624338279E-01  1.3615232718550E+00
79  7.8000000000000E-01 -8.9936504450370E-01  1.3212046577329E+00
80  7.9000000000000E-01 -9.1452414024867E-01  1.2751966485294E+00
81  8.0000000000000E-01 -9.2271236761947E-01  1.2229453525219E+00
82  8.1000000000000E-01 -9.2370731344423E-01  1.1639657641918E+00
83  8.2000000000000E-01 -9.1735688876809E-01  1.0978670454220E+00
84  8.3000000000000E-01 -9.0358989757800E-01  1.0243761516522E+00
85  8.4000000000000E-01 -8.8242522045533E-01  9.4335902088600E-01
86  8.5000000000000E-01 -8.5397926777048E-01  8.5483860635564E-01
87  8.6000000000000E-01 -8.1847140260191E-01  7.5900911946196E-01
88  8.7000000000000E-01 -7.7622708921646E-01  6.5624595552901E-01
89  8.8000000000000E-01 -7.2767858685296E-01  5.4711089742364E-01
90  8.9000000000000E-01 -6.7336307854512E-01  4.3235232702538E-01
91  9.0000000000000E-01 -6.1391819838084E-01  3.1290031722288E-01
92  9.1000000000000E-01 -5.5007499531168E-01  1.8985662250773E-01
93  9.2000000000000E-01 -4.8264844467222E-01  6.4479729059543E-02
94  9.3000000000000E-01 -4.1252568718038E-01 -6.1834739896800E-02
95  9.4000000000000E-01 -3.4065223665992E-01 -1.8757784598796E-01
96  9.5000000000000E-01 -2.6801644945875E-01 -3.1115486392945E-01
97  9.6000000000000E-01 -1.9563258813977E-01 -4.3091591467252E-01
98  9.7000000000000E-01 -1.2452283736888E-01 -5.4518904860249E-01
99  9.8000000000000E-01 -5.5698639211870E-02 -6.5231510114908E-01
100  9.9000000000000E-01  9.8582931485997E-03 -7.5068365386460E-01
101  1.0000000000000E+00  7.1214950993154E-02 -8.3876948029110E-01
102  1.0100000000000E+00  1.2750570851647E-01 -9.1516893901795E-01
103  1.0200000000000E+00  1.7795048276520E-01 -9.7863589643771E-01
104  1.0300000000000E+00  2.2187223778582E-01 -1.0281169186850E+00
105  1.0400000000000E+00  2.5871379798572E-01 -1.0627856644826E+00
106  1.0500000000000E+00  2.8805405493283E-01 -1.0820766358287E+00
107  1.0600000000000E+00  3.0962378684934E-01 -1.0857186995315E+00
108  1.0700000000000E+00  3.2332145841679E-01 -1.0737690748543E+00
109  1.0800000000000E+00  3.2922952842245E-01 -1.0466487875893E+00
110  1.0900000000000E+00  3.2763196795683E-01 -1.0051809276364E+00
111  1.1000000000000E+00  3.1903372333039E-01 -9.5063306445734E-01
112  1.1100000000000E+00  3.0418148231022E-01 -8.8476206642368E-01
113  1.1200000000000E+00  2.8402272751674E-01 -8.0972192041971E-01
114  1.1300000000000E+00  2.5959646404121E-01 -7.2782438329087E-01
115  1.1400000000000E+00  2.3199042836305E-01 -6.4145170101091E-01
116  1.1500000000000E+00  2.0231527984112E-01 -5.5300791470437E-01
117  1.1600000000000E+00  1.7167786444774E-01 -4.6486836869314E-01
118  1.1700000000000E+00  1.4115428406426E-01 -3.7932882512810E-01
119  1.1800000000000E+00  1.1176337045062E-01 -2.9855532694640E-01
120  1.1900000000000E+00  8.4436359745448E-02 -2.2452788588263E-01