Pa    ONCVPSP-4.0.1  r_core=   1.25016   1.25016   1.45183   1.45183
91.0000     31.0000      230727    zatom,zion,pspd
8      11   3     4   600     0    pspcod,pspxc,lmax,lloc,mmax,r2well
5.99000000  5.00000000  0.00000000    rchrg fchrg qchrg
3     3     4     3    nproj
3     1           extension_switch
4     4     4    nprojso
0                         2.3430216187549E+01  3.4190082457871E+00 -3.2424837584536E-01
1  0.0000000000000E+00 -3.6395424896085E-08  9.3851730442740E-08  5.7859180802033E-07
2  1.0000000000000E-02  1.2061290644564E-01 -4.6110697531971E-02 -1.6612951644779E-01
3  2.0000000000000E-02  2.4054745614279E-01 -9.1237674148738E-02 -3.2730547189070E-01
4  3.0000000000000E-02  3.5913558032086E-01 -1.3442167974215E-01 -4.7872960972721E-01
5  4.0000000000000E-02  4.7572948731290E-01 -1.7475163419270E-01 -6.1590935184929E-01
6  5.0000000000000E-02  5.8971106388392E-01 -2.1138680883184E-01 -7.3479846898161E-01
7  6.0000000000000E-02  7.0050041930112E-01 -2.4357679430977E-01 -8.3192358259673E-01
8  7.0000000000000E-02  8.0756333109845E-01 -2.7067863224086E-01 -9.0449248457847E-01
9  8.0000000000000E-02  9.1041738788307E-01 -2.9217058184988E-01 -9.5048083939741E-01
10  9.0000000000000E-02  1.0086366676972E+00 -3.0766210419566E-01 -9.6869452151164E-01
11  1.0000000000000E-01  1.1018548389440E+00 -3.1689977171572E-01 -9.5880561613756E-01
12  1.1000000000000E-01  1.1897666230945E+00 -3.1976894567266E-01 -9.2136094978333E-01
13  1.2000000000000E-01  1.2721276125677E+00 -3.1629120411781E-01 -8.5776289133355E-01
14  1.3000000000000E-01  1.3487524915076E+00 -3.0661764357547E-01 -7.7022304718278E-01
15  1.4000000000000E-01  1.4195117598459E+00 -2.9101831411740E-01 -6.6169033682545E-01
16  1.5000000000000E-01  1.4843271102710E+00 -2.6986817530211E-01 -5.3575575092676E-01
17  1.6000000000000E-01  1.5431656518649E+00 -2.4363007533409E-01 -3.9653683621609E-01
18  1.7000000000000E-01  1.5960332117253E+00 -2.1283535391175E-01 -2.4854559686731E-01
19  1.8000000000000E-01  1.6429669755900E+00 -1.7806274729038E-01 -9.6544029767211E-02
20  1.9000000000000E-01  1.6840277493045E+00 -1.3991632945069E-01  5.4608095678066E-02
21  2.0000000000000E-01  1.7192921342032E+00 -9.9003254052156E-02  2.0010835635493E-01
22  2.1000000000000E-01  1.7488449106979E+00 -5.5912066986779E-02  3.3536474482727E-01
23  2.2000000000000E-01  1.7727719155301E+00 -1.1192338613981E-02  4.5614180797387E-01
24  2.3000000000000E-01  1.7911536794926E+00  3.4663681218788E-02  5.5869519616559E-01
25  2.4000000000000E-01  1.8040600645730E+00  8.1236751997104E-02  6.3989033564994E-01
26  2.5000000000000E-01  1.8115461033181E+00  1.2819313304991E-01  6.9730144516133E-01
27  2.6000000000000E-01  1.8136491999480E+00  1.7529344330704E-01  7.2928774685109E-01
28  2.7000000000000E-01  1.8103878038039E+00  2.2239758243950E-01  7.3504445131348E-01
29  2.8000000000000E-01  1.8017616127148E+00  2.6946554083780E-01  7.1462690343476E-01
30  2.9000000000000E-01  1.7877533085888E+00  3.1655406744141E-01  6.6894713414931E-01
31  3.0000000000000E-01  1.7683317718397E+00  3.6380930750599E-01  5.9974294543482E-01
32  3.1000000000000E-01  1.7434566670143E+00  4.1145566219374E-01  5.0952053372252E-01
33  3.2000000000000E-01  1.7130842410458E+00  4.5978125369721E-01  4.0147250215915E-01
34  3.3000000000000E-01  1.6771741296537E+00  5.0912049900942E-01  2.7937389769156E-01
35  3.4000000000000E-01  1.6356969281217E+00  5.5983439838616E-01  1.4745960954033E-01
36  3.5000000000000E-01  1.5886422513786E+00  6.1228922749625E-01  1.0287058792328E-02
37  3.6000000000000E-01  1.5360269860879E+00  6.6683438236454E-01 -1.2741142446797E-01
38  3.7000000000000E-01  1.4779034251235E+00  7.2378016138188E-01 -2.6088181476853E-01
39  3.8000000000000E-01  1.4143669728521E+00  7.8337627760972E-01 -3.8550230035067E-01
40  3.9000000000000E-01  1.3455631181876E+00  8.4579187694246E-01 -4.9693297621341E-01
41  4.0000000000000E-01  1.2716933912190E+00  9.1109779390299E-01 -5.9125655080982E-01
42  4.1000000000000E-01  1.1930200477661E+00  9.7925170829650E-01 -6.6510559020700E-01
43  4.2000000000000E-01  1.1098692636063E+00  1.0500867748452E+00 -7.1577226069173E-01
44  4.3000000000000E-01  1.0226326651413E+00  1.1233041872283E+00 -7.4129709675843E-01
45  4.4000000000000E-01  9.3176707449388E-01  1.1984700112970E+00 -7.4053399755714E-01
46  4.5000000000000E-01  8.3779240275943E-01  1.2750164837941E+00 -7.1318941915223E-01
47  4.6000000000000E-01  7.4128768358472E-01  1.3522478272735E+00 -6.5983455738826E-01
48  4.7000000000000E-01  6.4288529846796E-01  1.4293504839117E+00 -5.8189017984072E-01
49  4.8000000000000E-01  5.4326350323115E-01  1.5054075254685E+00 -4.8158463714086E-01
50  4.9000000000000E-01  4.4313742008413E-01  1.5794168586276E+00 -3.6188643563997E-01
51  5.0000000000000E-01  3.4324870976056E-01  1.6503127189410E+00 -2.2641355733996E-01
52  5.1000000000000E-01  2.4435418170168E-01  1.7169898368198E+00 -7.9322443373636E-02
53  5.2000000000000E-01  1.4721363574935E-01  1.7783295691229E+00  7.4819809352708E-02
54  5.3000000000000E-01  5.2577255109394E-02  1.8332272228984E+00  2.3117597260565E-01
55  5.4000000000000E-01 -3.8827113409024E-02  1.8806197559426E+00  3.8478748382628E-01
56  5.5000000000000E-01 -1.2630645022002E-01  1.9195130234568E+00  5.3072682954318E-01
57  5.6000000000000E-01 -2.0921448831102E-01  1.9490077516673E+00  6.6424874345063E-01
58  5.7000000000000E-01 -2.8696275227994E-01  1.9683234574177E+00  7.8093551572954E-01
59  5.8000000000000E-01 -3.5903041598163E-01  1.9768195961104E+00  8.7683192914390E-01
60  5.9000000000000E-01 -4.2497271864830E-01  1.9740133068008E+00  9.4856569886123E-01
61  6.0000000000000E-01 -4.8442772229647E-01  1.9595932297764E+00  9.9344978389876E-01
62  6.1000000000000E-01 -5.3712124274700E-01  1.9334289949725E+00  1.0095635415150E+00
63  6.2000000000000E-01 -5.8286984101080E-01  1.8955761149167E+00  9.9581039103568E-01
64  6.3000000000000E-01 -6.2158181931596E-01  1.8462761589934E+00  9.5195041687802E-01
65  6.4000000000000E-01 -6.5325622477111E-01  1.7859522318651E+00  8.7860714627753E-01
66  6.5000000000000E-01 -6.7797992163862E-01  1.7151999230150E+00  7.7724855849559E-01
67  6.6000000000000E-01 -6.9592284853826E-01  1.6347740317838E+00  6.5014319196127E-01
68  6.7000000000000E-01 -7.0733162782565E-01  1.5455714984504E+00  5.0029298733289E-01
69  6.8000000000000E-01 -7.1252173926989E-01  1.4486110827511E+00  3.3134521291239E-01
70  6.9000000000000E-01 -7.1186850758730E-01  1.3450104231861E+00  1.4748644160607E-01
71  7.0000000000000E-01 -7.0579718223849E-01  1.2359611806672E+00 -4.6677933774061E-02
72  7.1000000000000E-01 -6.9477240733815E-01  1.1227030164125E+00 -2.4625476330391E-01
73  7.2000000000000E-01 -6.7928738905968E-01  1.0064971752384E+00 -4.4620063278576E-01
74  7.3000000000000E-01 -6.5985306739251E-01  8.8860044115613E-01 -6.4146151321251E-01
75  7.4000000000000E-01 -6.3698758871738E-01  7.7024020293967E-01 -8.2711030924445E-01
76  7.5000000000000E-01 -6.1120635594051E-01  6.5259131445751E-01 -9.9847820329967E-01
77  7.6000000000000E-01 -5.8301290470995E-01  5.3675536019064E-01 -1.1512759771259E+00
78  7.7000000000000E-01 -5.5289081864875E-01  4.2374284335431E-01 -1.2817018973301E+00
79  7.8000000000000E-01 -5.2129685493765E-01  3.1445870585966E-01 -1.3865332597319E+00
80  7.9000000000000E-01 -4.8865540550281E-01  2.0969146991954E-01 -1.4631992807293E+00
81  8.0000000000000E-01 -4.5535437017805E-01  1.1010616467258E-01 -1.5098336807320E+00
82  8.1000000000000E-01 -4.2174246824155E-01  1.6241072180330E-02 -1.5253060019292E+00
83  8.2000000000000E-01 -3.8812796540993E-01 -7.1491800016251E-02 -1.5092314159641E+00
84  8.3000000000000E-01 -3.5477874637419E-01 -1.5280273364535E-01 -1.4619594821828E+00
85  8.4000000000000E-01 -3.2192361983626E-01 -2.2751712656715E-01 -1.3845429902786E+00
86  8.5000000000000E-01 -2.8975470513466E-01 -2.9556555384780E-01 -1.2786886401179E+00
87  8.6000000000000E-01 -2.5843071809746E-01 -3.5697156576326E-01 -1.1466918561623E+00
88  8.7000000000000E-01 -2.2808094964914E-01 -4.1183778703538E-01 -9.9135848676339E-01
89  8.8000000000000E-01 -1.9880971456305E-01 -4.6033092247564E-01 -8.1591648548740E-01
90  8.9000000000000E-01 -1.7070103994520E-01 -5.0266629344001E-01 -6.2392090180272E-01
91  9.0000000000000E-01 -1.4382336361754E-01 -5.3909252688780E-01 -4.1915561495788E-01
92  9.1000000000000E-01 -1.1823402131937E-01 -5.6987699491262E-01 -2.0553522443386E-01
93  9.2000000000000E-01 -9.3983318082971E-02 -5.9529255856701E-01  1.2989636634362E-02
94  9.3000000000000E-01 -7.1118002554532E-02 -6.1560610741453E-01  2.3252056843341E-01
95  9.4000000000000E-01 -4.9683992527476E-02 -6.3106930777733E-01  4.4929064100402E-01
96  9.5000000000000E-01 -2.9728234499437E-02 -6.4191188072501E-01  6.5973248213578E-01
97  9.6000000000000E-01 -1.1299618526481E-02 -6.4833762834981E-01  8.6053368673118E-01
98  9.7000000000000E-01  5.5510891132213E-03 -6.5052331671164E-01  1.0486786895236E+00
99  9.8000000000000E-01  2.0772290057990E-02 -6.4862040894132E-01  1.2214769851965E+00
100  9.9000000000000E-01  3.4313525919860E-02 -6.4275952498524E-01  1.3765783801717E+00
101  1.0000000000000E+00  4.6128286171160E-02 -6.3305738772617E-01  1.5119768066931E+00
102  1.0100000000000E+00  5.6177517553443E-02 -6.1962590055798E-01  1.6260051123136E+00
103  1.0200000000000E+00  6.4433659969661E-02 -6.0258289027381E-01  1.7173241477454E+00
104  1.0300000000000E+00  7.0884994701128E-02 -5.8206394173967E-01  1.7849104097414E+00
105  1.0400000000000E+00  7.5540053267443E-02 -5.5823464733536E-01  1.8280474490597E+00
106  1.0500000000000E+00  7.8431798875405E-02 -5.3130249352133E-01  1.8463272281126E+00
107  1.0600000000000E+00  7.9621256357002E-02 -5.0152750712211E-01  1.8396686158799E+00
108  1.0700000000000E+00  7.9200229843821E-02 -4.6923068278253E-01  1.8083612433978E+00
109  1.0800000000000E+00  7.7292708670674E-02 -4.3479910683697E-01  1.7531440267611E+00
110  1.0900000000000E+00  7.4054519506520E-02 -3.9868657770892E-01  1.6753288579480E+00
111  1.1000000000000E+00  6.9670730447185E-02 -3.6140837736826E-01  1.5769801211647E+00
112  1.1100000000000E+00  6.4350206423395E-02 -3.2352850378314E-01  1.4611504958139E+00
113  1.1200000000000E+00  5.8315533486537E-02 -2.8563237148569E-01  1.3317035553742E+00
114  1.1300000000000E+00  5.1792747395190E-02 -2.4829814743205E-01  1.1926329806756E+00
115  1.1400000000000E+00  4.5006088514873E-02 -2.1208575087414E-01  1.0478667489846E+00
116  1.1500000000000E+00  3.8173280327945E-02 -1.7752815647545E-01  9.0121066741581E-01
117  1.1600000000000E+00  3.1500473858615E-02 -1.4512176094825E-01  7.5629757449720E-01
118  1.1700000000000E+00  2.5177009417208E-02 -1.1531614952363E-01  6.1654305701115E-01
119  1.1800000000000E+00  1.9370103859527E-02 -8.8503483353297E-02  4.8510792811017E-01
120  1.1900000000000E+00  1.4215921992026E-02 -6.4998680262841E-02  3.6488241882033E-01
121  1.2000000000000E+00  9.7666909110192E-03 -4.4908232015491E-02  2.5865556188401E-01
122  1.2100000000000E+00  6.1095296847168E-03 -2.8429003155955E-02  1.6859672101882E-01
123  1.2200000000000E+00  3.3176367512192E-03 -1.5731241100889E-02  9.6426041271453E-02
124  1.2300000000000E+00  1.4063848019643E-03 -6.8504317247053E-03  4.3583653155973E-02
125  1.2400000000000E+00  3.3087550789176E-04 -1.6710270147051E-03  1.1080663726416E-02
126  1.2500000000000E+00  1.0499752501059E-06 -5.5246089299822E-06  3.7727582884937E-05
127  1.2600000000000E+00  2.2737926880756E-06 -1.1896261709067E-05  8.1806695333401E-05
128  1.2700000000000E+00 -4.0853702752823E-07  2.0904273190042E-06 -1.4057216084558E-05
129  1.28  0.  0.  0.
130  1.29  0.  0.  0.
131  1.30  0.  0.  0.
132  1.31  0.  0.  0.
133  1.32  0.  0.  0.
134  1.33  0.  0.  0.
135  1.34  0.  0.  0.
136  1.35  0.  0.  0.
137  1.36  0.  0.  0.
138  1.37  0.  0.  0.
139  1.38  0.  0.  0.
140  1.39  0.  0.  0.
141  1.40  0.  0.  0.
142  1.41  0.  0.  0.
143  1.42  0.  0.  0.
144  1.43  0.  0.  0.
145  1.44  0.  0.  0.
146  1.45  0.  0.  0.
147  1.46  0.  0.  0.
148  1.47  0.  0.  0.
149  1.48  0.  0.  0.
150  1.49  0.  0.  0.
151  1.50  0.  0.  0.
152  1.51  0.  0.  0.
153  1.52  0.  0.  0.
154  1.53  0.  0.  0.
155  1.54  0.  0.  0.
156  1.55  0.  0.  0.
157  1.56  0.  0.  0.
158  1.57  0.  0.  0.
159  1.58  0.  0.  0.
160  1.59  0.  0.  0.
161  1.60  0.  0.  0.
162  1.61  0.  0.  0.
163  1.62  0.  0.  0.
164  1.63  0.  0.  0.
165  1.64  0.  0.  0.
166  1.65  0.  0.  0.
167  1.66  0.  0.  0.
168  1.67  0.  0.  0.
169  1.68  0.  0.  0.
170  1.69  0.  0.  0.
171  1.70  0.  0.  0.
172  1.71  0.  0.  0.
173  1.72  0.  0.  0.
174  1.73  0.  0.  0.
175  1.74  0.  0.  0.
176  1.75  0.  0.  0.
177  1.76  0.  0.  0.
178  1.77  0.  0.  0.
179  1.78  0.  0.  0.
180  1.79  0.  0.  0.
181  1.80  0.  0.  0.
182  1.81  0.  0.  0.
183  1.82  0.  0.  0.
184  1.83  0.  0.  0.
185  1.84  0.  0.  0.
186  1.85  0.  0.  0.
187  1.86  0.  0.  0.
188  1.87  0.  0.  0.
189  1.88  0.  0.  0.
190  1.89  0.  0.  0.
191  1.90  0.  0.  0.
192  1.91  0.  0.  0.
193  1.92  0.  0.  0.
194  1.93  0.  0.  0.
195  1.94  0.  0.  0.
196  1.95  0.  0.  0.
197  1.96  0.  0.  0.
198  1.97  0.  0.  0.
199  1.98  0.  0.  0.
200  1.99  0.  0.  0.
201  2.00  0.  0.  0.
202  2.01  0.  0.  0.
203  2.02  0.  0.  0.
204  2.03  0.  0.  0.
205  2.04  0.  0.  0.
206  2.05  0.  0.  0.
207  2.06  0.  0.  0.
208  2.07  0.  0.  0.
209  2.08  0.  0.  0.
210  2.09  0.  0.  0.
211  2.10  0.  0.  0.
212  2.11  0.  0.  0.
213  2.12  0.  0.  0.
214  2.13  0.  0.  0.
215  2.14  0.  0.  0.
216  2.15  0.  0.  0.
217  2.16  0.  0.  0.
218  2.17  0.  0.  0.
219  2.18  0.  0.  0.
220  2.19  0.  0.  0.
221  2.20  0.  0.  0.
222  2.21  0.  0.  0.
223  2.22  0.  0.  0.
224  2.23  0.  0.  0.
225  2.24  0.  0.  0.
226  2.25  0.  0.  0.
227  2.26  0.  0.  0.
228  2.27  0.  0.  0.
229  2.28  0.  0.  0.
230  2.29  0.  0.  0.
231  2.30  0.  0.  0.
232  2.31  0.  0.  0.
233  2.32  0.  0.  0.
234  2.33  0.  0.  0.
235  2.34  0.  0.  0.
236  2.35  0.  0.  0.
237  2.36  0.  0.  0.
238  2.37  0.  0.  0.
239  2.38  0.  0.  0.
240  2.39  0.  0.  0.
241  2.40  0.  0.  0.
242  2.41  0.  0.  0.
243  2.42  0.  0.  0.
244  2.43  0.  0.  0.
245  2.44  0.  0.  0.
246  2.45  0.  0.  0.
247  2.46  0.  0.  0.
248  2.47  0.  0.  0.
249  2.48  0.  0.  0.
250  2.49  0.  0.  0.
251  2.50  0.  0.  0.
252  2.51  0.  0.  0.
253  2.52  0.  0.  0.
254  2.53  0.  0.  0.
255  2.54  0.  0.  0.
256  2.55  0.  0.  0.
257  2.56  0.  0.  0.
258  2.57  0.  0.  0.
259  2.58  0.  0.  0.
260  2.59  0.  0.  0.
261  2.60  0.  0.  0.
262  2.61  0.  0.  0.
263  2.62  0.  0.  0.
264  2.63  0.  0.  0.
265  2.64  0.  0.  0.
266  2.65  0.  0.  0.
267  2.66  0.  0.  0.
268  2.67  0.  0.  0.
269  2.68  0.  0.  0.
270  2.69  0.  0.  0.
271  2.70  0.  0.  0.
272  2.71  0.  0.  0.
273  2.72  0.  0.  0.
274  2.73  0.  0.  0.
275  2.74  0.  0.  0.
276  2.75  0.  0.  0.
277  2.76  0.  0.  0.
278  2.77  0.  0.  0.
279  2.78  0.  0.  0.
280  2.79  0.  0.  0.
281  2.80  0.  0.  0.
282  2.81  0.  0.  0.
283  2.82  0.  0.  0.
284  2.83  0.  0.  0.
285  2.84  0.  0.  0.
286  2.85  0.  0.  0.
287  2.86  0.  0.  0.
288  2.87  0.  0.  0.
289  2.88  0.  0.  0.
290  2.89  0.  0.  0.
291  2.90  0.  0.  0.
292  2.91  0.  0.  0.
293  2.92  0.  0.  0.
294  2.93  0.  0.  0.
295  2.94  0.  0.  0.
296  2.95  0.  0.  0.
297  2.96  0.  0.  0.
298  2.97  0.  0.  0.
299  2.98  0.  0.  0.
300  2.99  0.  0.  0.
301  3.00  0.  0.  0.
302  3.01  0.  0.  0.
303  3.02  0.  0.  0.
304  3.03  0.  0.  0.
305  3.04  0.  0.  0.
306  3.05  0.  0.  0.
307  3.06  0.  0.  0.
308  3.07  0.  0.  0.
309  3.08  0.  0.  0.
310  3.09  0.  0.  0.
311  3.10  0.  0.  0.
312  3.11  0.  0.  0.
313  3.12  0.  0.  0.
314  3.13  0.  0.  0.
315  3.14  0.  0.  0.
316  3.15  0.  0.  0.
317  3.16  0.  0.  0.
318  3.17  0.  0.  0.
319  3.18  0.  0.  0.
320  3.19  0.  0.  0.
321  3.20  0.  0.  0.
322  3.21  0.  0.  0.
323  3.22  0.  0.  0.
324  3.23  0.  0.  0.
325  3.24  0.  0.  0.
326  3.25  0.  0.  0.
327  3.26  0.  0.  0.
328  3.27  0.  0.  0.
329  3.28  0.  0.  0.
330  3.29  0.  0.  0.
331  3.30  0.  0.  0.
332  3.31  0.  0.  0.
333  3.32  0.  0.  0.
334  3.33  0.  0.  0.
335  3.34  0.  0.  0.
336  3.35  0.  0.  0.
337  3.36  0.  0.  0.
338  3.37  0.  0.  0.
339  3.38  0.  0.  0.
340  3.39  0.  0.  0.
341  3.40  0.  0.  0.
342  3.41  0.  0.  0.
343  3.42  0.  0.  0.
344  3.43  0.  0.  0.
345  3.44  0.  0.  0.
346  3.45  0.  0.  0.
347  3.46  0.  0.  0.
348  3.47  0.  0.  0.
349  3.48  0.  0.  0.
350  3.49  0.  0.  0.
351  3.50  0.  0.  0.
352  3.51  0.  0.  0.
353  3.52  0.  0.  0.
354  3.53  0.  0.  0.
355  3.54  0.  0.  0.
356  3.55  0.  0.  0.
357  3.56  0.  0.  0.
358  3.57  0.  0.  0.
359  3.58  0.  0.  0.
360  3.59  0.  0.  0.
361  3.60  0.  0.  0.
362  3.61  0.  0.  0.
363  3.62  0.  0.  0.
364  3.63  0.  0.  0.
365  3.64  0.  0.  0.
366  3.65  0.  0.  0.
367  3.66  0.  0.  0.
368  3.67  0.  0.  0.
369  3.68  0.  0.  0.
370  3.69  0.  0.  0.
371  3.70  0.  0.  0.
372  3.71  0.  0.  0.
373  3.72  0.  0.  0.
374  3.73  0.  0.  0.
375  3.74  0.  0.  0.
376  3.75  0.  0.  0.
377  3.76  0.  0.  0.
378  3.77  0.  0.  0.
379  3.78  0.  0.  0.
380  3.79  0.  0.  0.
381  3.80  0.  0.  0.
382  3.81  0.  0.  0.
383  3.82  0.  0.  0.
384  3.83  0.  0.  0.
385  3.84  0.  0.  0.
386  3.85  0.  0.  0.
387  3.86  0.  0.  0.
388  3.87  0.  0.  0.
389  3.88  0.  0.  0.
390  3.89  0.  0.  0.
391  3.90  0.  0.  0.
392  3.91  0.  0.  0.
393  3.92  0.  0.  0.
394  3.93  0.  0.  0.
395  3.94  0.  0.  0.
396  3.95  0.  0.  0.
397  3.96  0.  0.  0.
398  3.97  0.  0.  0.
399  3.98  0.  0.  0.
400  3.99  0.  0.  0.
401  4.00  0.  0.  0.
402  4.01  0.  0.  0.
403  4.02  0.  0.  0.
404  4.03  0.  0.  0.
405  4.04  0.  0.  0.
406  4.05  0.  0.  0.
407  4.06  0.  0.  0.
408  4.07  0.  0.  0.
409  4.08  0.  0.  0.
410  4.09  0.  0.  0.
411  4.10  0.  0.  0.
412  4.11  0.  0.  0.
413  4.12  0.  0.  0.
414  4.13  0.  0.  0.
415  4.14  0.  0.  0.
416  4.15  0.  0.  0.
417  4.16  0.  0.  0.
418  4.17  0.  0.  0.
419  4.18  0.  0.  0.
420  4.19  0.  0.  0.
421  4.20  0.  0.  0.
422  4.21  0.  0.  0.
423  4.22  0.  0.  0.
424  4.23  0.  0.  0.
425  4.24  0.  0.  0.
426  4.25  0.  0.  0.
427  4.26  0.  0.  0.
428  4.27  0.  0.  0.
429  4.28  0.  0.  0.
430  4.29  0.  0.  0.
431  4.30  0.  0.  0.
432  4.31  0.  0.  0.
433  4.32  0.  0.  0.
434  4.33  0.  0.  0.
435  4.34  0.  0.  0.
436  4.35  0.  0.  0.
437  4.36  0.  0.  0.
438  4.37  0.  0.  0.
439  4.38  0.  0.  0.
440  4.39  0.  0.  0.
441  4.40  0.  0.  0.
442  4.41  0.  0.  0.
443  4.42  0.  0.  0.
444  4.43  0.  0.  0.
445  4.44  0.  0.  0.
446  4.45  0.  0.  0.
447  4.46  0.  0.  0.
448  4.47  0.  0.  0.
449  4.48  0.  0.  0.
450  4.49  0.  0.  0.
451  4.50  0.  0.  0.
452  4.51  0.  0.  0.
453  4.52  0.  0.  0.
454  4.53  0.  0.  0.
455  4.54  0.  0.  0.
456  4.55  0.  0.  0.
457  4.56  0.  0.  0.
458  4.57  0.  0.  0.
459  4.58  0.  0.  0.
460  4.59  0.  0.  0.
461  4.60  0.  0.  0.
462  4.61  0.  0.  0.
463  4.62  0.  0.  0.
464  4.63  0.  0.  0.
465  4.64  0.  0.  0.
466  4.65  0.  0.  0.
467  4.66  0.  0.  0.
468  4.67  0.  0.  0.
469  4.68  0.  0.  0.
470  4.69  0.  0.  0.
471  4.70  0.  0.  0.
472  4.71  0.  0.  0.
473  4.72  0.  0.  0.
474  4.73  0.  0.  0.
475  4.74  0.  0.  0.
476  4.75  0.  0.  0.
477  4.76  0.  0.  0.
478  4.77  0.  0.  0.
479  4.78  0.  0.  0.
480  4.79  0.  0.  0.
481  4.80  0.  0.  0.
482  4.81  0.  0.  0.
483  4.82  0.  0.  0.
484  4.83  0.  0.  0.
485  4.84  0.  0.  0.
486  4.85  0.  0.  0.
487  4.86  0.  0.  0.
488  4.87  0.  0.  0.
489  4.88  0.  0.  0.
490  4.89  0.  0.  0.
491  4.90  0.  0.  0.
492  4.91  0.  0.  0.
493  4.92  0.  0.  0.
494  4.93  0.  0.  0.
495  4.94  0.  0.  0.
496  4.95  0.  0.  0.
497  4.96  0.  0.  0.
498  4.97  0.  0.  0.
499  4.98  0.  0.  0.
500  4.99  0.  0.  0.
501  5.00  0.  0.  0.
502  5.01  0.  0.  0.
503  5.02  0.  0.  0.
504  5.03  0.  0.  0.
505  5.04  0.  0.  0.
506  5.05  0.  0.  0.
507  5.06  0.  0.  0.
508  5.07  0.  0.  0.
509  5.08  0.  0.  0.
510  5.09  0.  0.  0.
511  5.10  0.  0.  0.
512  5.11  0.  0.  0.
513  5.12  0.  0.  0.
514  5.13  0.  0.  0.
515  5.14  0.  0.  0.
516  5.15  0.  0.  0.
517  5.16  0.  0.  0.
518  5.17  0.  0.  0.
519  5.18  0.  0.  0.
520  5.19  0.  0.  0.
521  5.20  0.  0.  0.
522  5.21  0.  0.  0.
523  5.22  0.  0.  0.
524  5.23  0.  0.  0.
525  5.24  0.  0.  0.
526  5.25  0.  0.  0.
527  5.26  0.  0.  0.
528  5.27  0.  0.  0.
529  5.28  0.  0.  0.
530  5.29  0.  0.  0.
531  5.30  0.  0.  0.
532  5.31  0.  0.  0.
533  5.32  0.  0.  0.
534  5.33  0.  0.  0.
535  5.34  0.  0.  0.
536  5.35  0.  0.  0.
537  5.36  0.  0.  0.
538  5.37  0.  0.  0.
539  5.38  0.  0.  0.
540  5.39  0.  0.  0.
541  5.40  0.  0.  0.
542  5.41  0.  0.  0.
543  5.42  0.  0.  0.
544  5.43  0.  0.  0.
545  5.44  0.  0.  0.
546  5.45  0.  0.  0.
547  5.46  0.  0.  0.
548  5.47  0.  0.  0.
549  5.48  0.  0.  0.
550  5.49  0.  0.  0.
551  5.50  0.  0.  0.
552  5.51  0.  0.  0.
553  5.52  0.  0.  0.
554  5.53  0.  0.  0.
555  5.54  0.  0.  0.
556  5.55  0.  0.  0.
557  5.56  0.  0.  0.
558  5.57  0.  0.  0.
559  5.58  0.  0.  0.
560  5.59  0.  0.  0.
561  5.60  0.  0.  0.
562  5.61  0.  0.  0.
563  5.62  0.  0.  0.
564  5.63  0.  0.  0.
565  5.64  0.  0.  0.
566  5.65  0.  0.  0.
567  5.66  0.  0.  0.
568  5.67  0.  0.  0.
569  5.68  0.  0.  0.
570  5.69  0.  0.  0.
571  5.70  0.  0.  0.
572  5.71  0.  0.  0.
573  5.72  0.  0.  0.
574  5.73  0.  0.  0.
575  5.74  0.  0.  0.
576  5.75  0.  0.  0.
577  5.76  0.  0.  0.
578  5.77  0.  0.  0.
579  5.78  0.  0.  0.
580  5.79  0.  0.  0.
581  5.80  0.  0.  0.
582  5.81  0.  0.  0.
583  5.82  0.  0.  0.
584  5.83  0.  0.  0.
585  5.84  0.  0.  0.
586  5.85  0.  0.  0.
587  5.86  0.  0.  0.
588  5.87  0.  0.  0.
589  5.88  0.  0.  0.
590  5.89  0.  0.  0.
591  5.90  0.  0.  0.
592  5.91  0.  0.  0.
593  5.92  0.  0.  0.
594  5.93  0.  0.  0.
595  5.94  0.  0.  0.
596  5.95  0.  0.  0.
597  5.96  0.  0.  0.
598  5.97  0.  0.  0.
599  5.98  0.  0.  0.
600  5.99  0.  0.  0.
1                         1.1789914720230E+01  1.2555953757801E+00 -6.6140759562951E-02
1  0.0000000000000E+00 -1.2736778104427E-08  4.1423583570233E-08 -6.3349644384425E-08
2  1.0000000000000E-02  3.1567501512971E-03 -6.4490147154825E-04  5.2125150521050E-04
3  2.0000000000000E-02  1.2611355848226E-02 -2.5868607894603E-03  2.1050089077088E-03
4  3.0000000000000E-02  2.8316752448522E-02 -5.8469299095841E-03  4.8101471595467E-03
5  4.0000000000000E-02  5.0194073044852E-02 -1.0457847405450E-02  8.7310547732543E-03
6  5.0000000000000E-02  7.8132039972081E-02 -1.6460612908075E-02  1.3992176960979E-02
7  6.0000000000000E-02  1.1198617234462E-01 -2.3899880958693E-02  2.0740666449884E-02
8  7.0000000000000E-02  1.5157786652416E-01 -3.2818356313467E-02  2.9137420703909E-02
9  8.0000000000000E-02  1.9669341915497E-01 -4.3250414162862E-02  3.9346847631633E-02
10  9.0000000000000E-02  2.4708307265360E-01 -5.5215202670274E-02  5.1525753706882E-02
11  1.0000000000000E-01  3.0246017041592E-01 -6.8709510524522E-02  6.5811786978906E-02
12  1.1000000000000E-01  3.6250051320795E-01 -8.3700697939858E-02  8.2311891332274E-02
13  1.2000000000000E-01  4.2684200904545E-01 -1.0011999513108E-01  1.0109123667028E-01
14  1.3000000000000E-01  4.9508470624939E-01 -1.1785646746230E-01  1.2216308203273E-01
15  1.4000000000000E-01  5.6679129331649E-01 -1.3675193127535E-01  1.4548000512954E-01
16  1.5000000000000E-01  6.4148813989825E-01 -1.5659707923577E-01  1.7092689299471E-01
17  1.6000000000000E-01  7.1866694078243E-01 -1.7712903960270E-01  1.9831603556208E-01
18  1.7000000000000E-01  7.9778700966013E-01 -1.9803055114742E-01  2.2738459851903E-01
19  1.8000000000000E-01  8.7827825207675E-01 -2.1893088580236E-01  2.5779467581238E-01
20  1.9000000000000E-01  9.5954482781816E-01 -2.3940859603791E-01  2.8913603802669E-01
21  2.0000000000000E-01  1.0409694926544E+00 -2.5899610515322E-01  3.2093160318584E-01
22  2.1000000000000E-01  1.1219185884752E+00 -2.7718609797699E-01  3.5264556420415E-01
23  2.2000000000000E-01  1.2017476300552E+00 -2.9343960883762E-01  3.8369401521863E-01
24  2.3000000000000E-01  1.2798074166443E+00 -3.0719564503134E-01  4.1345783037861E-01
25  2.4000000000000E-01  1.3554505779318E+00 -3.1788212930649E-01  4.4129746629501E-01
26  2.5000000000000E-01  1.4280384472958E+00 -3.2492789590547E-01  4.6656928604038E-01
27  2.6000000000000E-01  1.4969481411873E+00 -3.2777543311996E-01  4.8864294087273E-01
28  2.7000000000000E-01  1.5615797124874E+00 -3.2589403256533E-01  5.0691929792532E-01
29  2.8000000000000E-01  1.6213632381374E+00 -3.1879298265064E-01  5.2084836974751E-01
30  2.9000000000000E-01  1.6757656975555E+00 -3.0603443189841E-01  5.2994668611552E-01
31  3.0000000000000E-01  1.7242974985288E+00 -2.8724554740586E-01  5.3381355074995E-01
32  3.1000000000000E-01  1.7665185114690E+00 -2.6212960503570E-01  5.3214564572824E-01
33  3.2000000000000E-01  1.8020434810878E+00 -2.3047567071621E-01  5.2474948413578E-01
34  3.3000000000000E-01  1.8305466965260E+00 -1.9216656598453E-01  5.1155126597376E-01
35  3.4000000000000E-01  1.8517658164454E+00 -1.4718485474228E-01  4.9260376209550E-01
36  3.5000000000000E-01  1.8655047641819E+00 -9.5616640892248E-02  4.6808993402739E-01
37  3.6000000000000E-01  1.8716356292333E+00 -3.7653026577894E-02  4.3832309154447E-01
38  3.7000000000000E-01  1.8700995345517E+00  2.6410853612557E-02  4.0374349201795E-01
39  3.8000000000000E-01  1.8609064536417E+00  9.6179237857954E-02  3.6491139273694E-01
40  3.9000000000000E-01  1.8441339866390E+00  1.7116152634810E-01  3.2249667631777E-01
41  4.0000000000000E-01  1.8199251296228E+00  2.5078032909461E-01  2.7726527653044E-01
42  4.1000000000000E-01  1.7884850956385E+00  3.3438157964712E-01  2.3006273396434E-01
43  4.2000000000000E-01  1.7500772685782E+00  4.2124645988187E-01  1.8179530461130E-01
44  4.3000000000000E-01  1.7050183914733E+00  5.1060482589600E-01  1.3340912654241E-01
45  4.4000000000000E-01  1.6536731082972E+00  6.0164977876503E-01  8.5868017619377E-02
46  4.5000000000000E-01  1.5964479925068E+00  6.9355298806492E-01  4.0130528208532E-02
47  4.6000000000000E-01  1.5337852058351E+00  7.8548035188003E-01 -2.8730947154523E-03
48  4.7000000000000E-01  1.4661559369701E+00  8.7660756541400E-01 -4.2263363223967E-02
49  4.8000000000000E-01  1.3940537715163E+00  9.6613517180541E-01 -7.7232763188921E-02
50  4.9000000000000E-01  1.3179881419843E+00  1.0533026834266E+00 -1.0706509640614E-01
51  5.0000000000000E-01  1.2384779995743E+00  1.1374013894934E+00 -1.3115236742166E-01
52  5.1000000000000E-01  1.1560458384213E+00  1.2177855055044E+00 -1.4900870035734E-01
53  5.2000000000000E-01  1.0712121881260E+00  1.2938813707235E+00 -1.6028085602095E-01
54  5.3000000000000E-01  9.8449067225386E-01  1.3651944601232E+00 -1.6475501916170E-01
55  5.4000000000000E-01  8.9638370965673E-01  1.4313140450884E+00 -1.6235963694977E-01
56  5.5000000000000E-01  8.0737891260683E-01  1.4919154106432E+00 -1.5316420925168E-01
57  5.6000000000000E-01  7.1794621159294E-01  1.5467596137118E+00 -1.3737405536735E-01
58  5.7000000000000E-01  6.2853571199036E-01  1.5956908445031E+00 -1.1532120670300E-01
59  5.8000000000000E-01  5.3957626349566E-01  1.6386315290473E+00 -8.7451696421477E-02
60  5.9000000000000E-01  4.5147470001475E-01  1.6755753827140E+00 -5.4309631522332E-02
61  6.0000000000000E-01  3.6461568637900E-01  1.7065786898641E+00 -1.6518536323568E-02
62  6.1000000000000E-01  2.7936208954991E-01  1.7317501414318E+00  2.5239454491195E-02
63  6.2000000000000E-01  1.9605577648618E-01  1.7512396082962E+00  7.0245903251389E-02
64  6.3000000000000E-01  1.1501872910894E-01  1.7652262621703E+00  1.1776917509583E-01
65  6.4000000000000E-01  3.6554359210881E-02  1.7739064762155E+00  1.6708760991109E-01
66  6.5000000000000E-01 -3.9051097030515E-02  1.7774819438890E+00  2.1751202080909E-01
67  6.6000000000000E-01 -1.1152722394392E-01  1.7761484463297E+00  2.6840679563096E-01
68  6.7000000000000E-01 -1.8061822386731E-01  1.7700856760507E+00  3.1920891719520E-01
69  6.8000000000000E-01 -2.4608197039976E-01  1.7594484884489E+00  3.6944427934808E-01
70  6.9000000000000E-01 -3.0768940654679E-01  1.7443599037867E+00  4.1874075756062E-01
71  7.0000000000000E-01 -3.6522435948053E-01  1.7249061223509E+00  4.6683759240894E-01
72  7.1000000000000E-01 -4.1848382339440E-01  1.7011337463835E+00  5.1359075872154E-01
73  7.2000000000000E-01 -4.6727873958690E-01  1.6730493263372E+00  5.5897411892125E-01
74  7.3000000000000E-01 -5.1143527926266E-01  1.6406212685316E+00  6.0307629215864E-01
75  7.4000000000000E-01 -5.5079661043492E-01  1.6037840590395E+00  6.4609330701571E-01
76  7.5000000000000E-01 -5.8522510663432E-01  1.5624446773569E+00  6.8831724046533E-01
77  7.6000000000000E-01 -6.1460493273863E-01  1.5164909958545E+00  7.3012117506971E-01
78  7.7000000000000E-01 -6.3884492296878E-01  1.4658018897860E+00  7.7194092589699E-01
79  7.8000000000000E-01 -6.5788164871652E-01  1.4102587201913E+00  8.1425409443136E-01
80  7.9000000000000E-01 -6.7168256004447E-01  1.3497578005205E+00  8.5755709540960E-01
81  8.0000000000000E-01 -6.8024907498255E-01  1.2842234190150E+00  9.0234087113886E-01
82  8.1000000000000E-01 -6.8361948554177E-01  1.2136209641682E+00  9.4906605421182E-01
83  8.2000000000000E-01 -6.8187154892752E-01  1.1379696908385E+00  9.9813836215056E-01
84  8.3000000000000E-01 -6.7512463683599E-01  1.0573546701476E+00  1.0498850057044E+00
85  8.4000000000000E-01 -6.6354132486111E-01  9.7193748699361E-01  1.1045328664640E+00
86  8.5000000000000E-01 -6.4732831764543E-01  8.8196528409409E-01  1.1621891501299E+00
87  8.6000000000000E-01 -6.2673662302841E-01  7.8777779969521E-01  1.2228251510235E+00
88  8.7000000000000E-01 -6.0206090946387E-01  6.8981210565711E-01  1.2862636738465E+00
89  8.8000000000000E-01 -5.7363800463809E-01  5.8860482133236E-01  1.3521705535766E+00
90  8.9000000000000E-01 -5.4184451863465E-01  4.8479165386516E-01  1.4200505976390E+00
91  9.0000000000000E-01 -5.0709360117848E-01  3.7910419431100E-01  1.4892481505021E+00