Mc    ONCVPSP-4.0.1  r_core=   1.40796   1.40796   1.40796   1.60600
115.0000     23.0000      220326    zatom,zion,pspd
8      11   3     4   600     0    pspcod,pspxc,lmax,lloc,mmax,r2well
5.99000000  5.00000000  0.00000000    rchrg fchrg qchrg
2     2     2     1     0    nproj
1     1           extension_switch
0                         1.5283420823985E+01 -2.4743189870263E-01
1  0.0000000000000E+00  3.1525360100204E-10  1.0860988663985E-08
2  1.0000000000000E-02  7.8032791142763E-02  1.7835558293680E-02
3  2.0000000000000E-02  1.5589719320328E-01  3.5857241182185E-02
4  3.0000000000000E-02  2.3342506259920E-01  5.4244852518732E-02
5  4.0000000000000E-02  3.1044875005427E-01  7.3165693122243E-02
6  5.0000000000000E-02  3.8680135593435E-01  9.2768652522103E-02
7  6.0000000000000E-02  4.6231699517265E-01  1.1317870466713E-01
8  7.0000000000000E-02  5.3683107460172E-01  1.3449192917813E-01
9  8.0000000000000E-02  6.1018058519418E-01  1.5677116886246E-01
10  9.0000000000000E-02  6.8220441133223E-01  1.8004242105683E-01
11  1.0000000000000E-01  7.5274365878382E-01  2.0429204519200E-01
12  1.1000000000000E-01  8.2164200257066E-01  2.2946485209167E-01
13  1.2000000000000E-01  8.8874605537954E-01  2.5546312227413E-01
14  1.3000000000000E-01  9.5390575660336E-01  2.8214658129552E-01
15  1.4000000000000E-01  1.0169747815144E+00  3.0933334035201E-01
16  1.5000000000000E-01  1.0778109694794E+00  3.3680179035428E-01
17  1.6000000000000E-01  1.1362767695382E+00  3.6429341791131E-01
18  1.7000000000000E-01  1.1922397010921E+00  3.9151649252262E-01
19  1.8000000000000E-01  1.2455728269026E+00  4.1815055616732E-01
20  1.9000000000000E-01  1.2961552350906E+00  4.4385162977674E-01
21  2.0000000000000E-01  1.3438725263613E+00  4.6825803611994E-01
22  2.1000000000000E-01  1.3886173022785E+00  4.9099672573627E-01
23  2.2000000000000E-01  1.4302896500650E+00  5.1168998197543E-01
24  2.3000000000000E-01  1.4687976191390E+00  5.2996237317793E-01
25  2.4000000000000E-01  1.5040576844039E+00  5.4544781470734E-01
26  2.5000000000000E-01  1.5359951911937E+00  5.5779660104786E-01
27  2.6000000000000E-01  1.5645447767506E+00  5.6668226854996E-01
28  2.7000000000000E-01  1.5896507631669E+00  5.7180815264270E-01
29  2.8000000000000E-01  1.6112675168606E+00  5.7291350936019E-01
30  2.9000000000000E-01  1.6293597698784E+00  5.6977907973004E-01
31  3.0000000000000E-01  1.6439028986169E+00  5.6223198675901E-01
32  3.1000000000000E-01  1.6548831559214E+00  5.5014986819309E-01
33  3.2000000000000E-01  1.6622978529645E+00  5.3346416364345E-01
34  3.3000000000000E-01  1.6661554877936E+00  5.1216249173503E-01
35  3.4000000000000E-01  1.6664758179874E+00  4.8629007129065E-01
36  3.5000000000000E-01  1.6632898754400E+00  4.5595015982719E-01
37  3.6000000000000E-01  1.6566399219061E+00  4.2130350240603E-01
38  3.7000000000000E-01  1.6465793445721E+00  3.8256680373011E-01
39  3.8000000000000E-01  1.6331724915544E+00  3.4001025590062E-01
40  3.9000000000000E-01  1.6164944478639E+00  2.9395417301932E-01
41  4.0000000000000E-01  1.5966307529961E+00  2.4476480145962E-01
42  4.1000000000000E-01  1.5736770619012E+00  1.9284939075003E-01
43  4.2000000000000E-01  1.5477387516535E+00  1.3865062428452E-01
44  4.3000000000000E-01  1.5189304766576E+00  8.2640521186934E-02
45  4.4000000000000E-01  1.4873756756987E+00  2.5313930362222E-02
46  4.5000000000000E-01  1.4532060345558E+00 -3.2818255144514E-02
47  4.6000000000000E-01  1.4165609082457E+00 -9.1236031033314E-02
48  4.7000000000000E-01  1.3775867072493E+00 -1.4941722795629E-01
49  4.8000000000000E-01  1.3364362522829E+00 -2.0684433852819E-01
50  4.9000000000000E-01  1.2932681023247E+00 -2.6301109686931E-01
51  5.0000000000000E-01  1.2482458606761E+00 -3.1742868940484E-01
52  5.1000000000000E-01  1.2015374638462E+00 -3.6963148522545E-01
53  5.2000000000000E-01  1.1533144579889E+00 -4.1918218627289E-01
54  5.3000000000000E-01  1.1037512675034E+00 -4.6567631167676E-01
55  5.4000000000000E-01  1.0530244602349E+00 -5.0874594642540E-01
56  5.5000000000000E-01  1.0013120134960E+00 -5.4806270184869E-01
57  5.6000000000000E-01  9.4879258486430E-01 -5.8333985373382E-01
58  5.7000000000000E-01  8.9564479142387E-01 -6.1433364287722E-01
59  5.8000000000000E-01  8.4204650080210E-01 -6.4084374206659E-01
60  5.9000000000000E-01  7.8817413702461E-01 -6.6271291245336E-01
61  6.0000000000000E-01  7.3420200387759E-01 -6.7982589058400E-01
62  6.1000000000000E-01  6.8030162813646E-01 -6.9210756459452E-01
63  6.2000000000000E-01  6.2664112470144E-01 -6.9952051383473E-01
64  6.3000000000000E-01  5.7338458538175E-01 -7.0206200011610E-01
65  6.4000000000000E-01  5.2069149279811E-01 -6.9976051054139E-01
66  6.5000000000000E-01  4.6871616063249E-01 -6.9267196119923E-01
67  6.6000000000000E-01  4.1760720125159E-01 -6.8087567766491E-01
68  6.7000000000000E-01  3.6750702156735E-01 -6.6447027207794E-01
69  6.8000000000000E-01  3.1855134787775E-01 -6.4356953746093E-01
70  6.9000000000000E-01  2.7086878035430E-01 -6.1829847787233E-01
71  7.0000000000000E-01  2.2458037780822E-01 -5.8878958797502E-01
72  7.1000000000000E-01  1.7979927337305E-01 -5.5517948775592E-01
73  7.2000000000000E-01  1.3663032178473E-01 -5.1760600761557E-01
74  7.3000000000000E-01  9.5169779014569E-02 -4.7620580608698E-01
75  7.4000000000000E-01  5.5505015112121E-02 -4.3111258732919E-01
76  7.5000000000000E-01  1.7714261234777E-02 -3.8245596861699E-01
77  7.6000000000000E-01 -1.8133608027336E-02 -3.3036102969151E-01
78  7.7000000000000E-01 -5.1979255788265E-02 -2.7494855648178E-01
79  7.8000000000000E-01 -8.3773026093600E-02 -2.1633597179578E-01
80  7.9000000000000E-01 -1.1347504775369E-01 -1.5463892559156E-01
81  8.0000000000000E-01 -1.4105529720885E-01 -8.9973497844327E-02
82  8.1000000000000E-01 -1.6649361879628E-01 -2.2458948307071E-02
83  8.2000000000000E-01 -1.8977970077294E-01  4.7779069922501E-02
84  8.3000000000000E-01 -2.1091300548145E-01  1.2060493172521E-01
85  8.4000000000000E-01 -2.2990265213357E-01  1.9586920830342E-01
86  8.5000000000000E-01 -2.4676725083292E-01  2.7340470556670E-01
87  8.6000000000000E-01 -2.6153468666941E-01  3.5302250363297E-01
88  8.7000000000000E-01 -2.7424185299375E-01  4.3450813347590E-01
89  8.8000000000000E-01 -2.8493433332300E-01  5.1761802843404E-01
90  8.9000000000000E-01 -2.9366603173469E-01  6.0207638660479E-01
91  9.0000000000000E-01 -3.0049875207583E-01  6.8757257503972E-01
92  9.1000000000000E-01 -3.0550172683799E-01  7.7375919818523E-01
93  9.2000000000000E-01 -3.0875109712499E-01  8.6025094129524E-01
94  9.3000000000000E-01 -3.1032934575628E-01  9.4662428477733E-01
95  9.4000000000000E-01 -3.1032468619751E-01  1.0324181678985E+00
96  9.5000000000000E-01 -3.0883041067834E-01  1.1171356602983E+00
97  9.6000000000000E-01 -3.0594420153435E-01  1.2002466777504E+00
98  9.7000000000000E-01 -3.0176741048057E-01  1.2811917550216E+00
99  9.8000000000000E-01 -2.9640431117590E-01  1.3593868640006E+00
100  9.9000000000000E-01 -2.8996133105423E-01  1.4342292400536E+00
101  1.0000000000000E+00 -2.8254626896726E-01  1.5051041543305E+00
102  1.0100000000000E+00 -2.7426750568903E-01  1.5713925451013E+00
103  1.0200000000000E+00 -2.6523321476104E-01  1.6324793976863E+00
104  1.0300000000000E+00 -2.5555058149608E-01  1.6877627407067E+00
105  1.0400000000000E+00 -2.4532503819690E-01  1.7366631067528E+00
106  1.0500000000000E+00 -2.3465952377251E-01  1.7786332886422E+00
107  1.0600000000000E+00 -2.2365377594204E-01  1.8131682086299E+00
108  1.0700000000000E+00 -2.1240366409705E-01  1.8398147076361E+00
109  1.0800000000000E+00 -2.0100057064434E-01  1.8581810550756E+00
110  1.0900000000000E+00 -1.8953082827002E-01  1.8679459774338E+00
111  1.1000000000000E+00 -1.7807522005435E-01  1.8688670054862E+00
112  1.1100000000000E+00 -1.6670854872614E-01  1.8607879460755E+00
113  1.1200000000000E+00 -1.5549928058486E-01  1.8436452945899E+00
114  1.1300000000000E+00 -1.4450926874267E-01  1.8174734186371E+00
115  1.1400000000000E+00 -1.3379355936152E-01  1.7824083616481E+00
116  1.1500000000000E+00 -1.2340028349290E-01  1.7386901370000E+00
117  1.1600000000000E+00 -1.1337063598701E-01  1.6866634083160E+00
118  1.1700000000000E+00 -1.0373894173889E-01  1.6267764794841E+00
119  1.1800000000000E+00 -9.4532808304196E-02  1.5595785480135E+00
120  1.1900000000000E+00 -8.5773362658830E-02  1.4857152072595E+00
121  1.2000000000000E+00 -7.7475568628657E-02  1.4059222158132E+00
122  1.2100000000000E+00 -6.9648620280455E-02  1.3210175858617E+00
123  1.2200000000000E+00 -6.2296405386702E-02  1.2318920752709E+00
124  1.2300000000000E+00 -5.5418031954761E-02  1.1394982004669E+00
125  1.2400000000000E+00 -4.9008409780214E-02  1.0448379178302E+00
126  1.2500000000000E+00 -4.3058878060116E-02  9.4894914970854E-01
127  1.2600000000000E+00 -3.7557869295464E-02  8.5289135694758E-01
128  1.2700000000000E+00 -3.2491599051410E-02  7.5773038207943E-01
129  1.2800000000000E+00 -2.7844770631672E-02  6.6452280584215E-01
130  1.2900000000000E+00 -2.3601283375687E-02  5.7430007399840E-01
131  1.3000000000000E+00 -1.9744933113003E-02  4.8805266106679E-01
132  1.3100000000000E+00 -1.6260093310284E-02  4.0671454248309E-01
133  1.3200000000000E+00 -1.3132370441630E-02  3.3114811196377E-01
134  1.3300000000000E+00 -1.0349185646235E-02  2.6213077557342E-01
135  1.3400000000000E+00 -7.9008289812059E-03  2.0032787662714E-01
136  1.3500000000000E+00 -5.7853575857482E-03  1.4614217546453E-01
137  1.3600000000000E+00 -3.9974794285670E-03  1.0004362861899E-01
138  1.3700000000000E+00 -2.5329526911190E-03  6.2463637411518E-02
139  1.3800000000000E+00 -1.3929224819700E-03  3.3667398267368E-02
140  1.3900000000000E+00 -5.8385363278195E-04  1.3759424773382E-02
141  1.4000000000000E+00 -1.1729754911936E-04  2.6817831193576E-03
142  1.4100000000000E+00  5.7538521570469E-06 -1.2797348323504E-04
143  1.4200000000000E+00 -1.9529943232500E-06  4.3884959088658E-05
144  1.43  0. -0.
145  1.44 -0. -0.
146  1.45  0.  0.
147  1.46  0.  0.
148  1.47  0.  0.
149  1.48  0.  0.
150  1.49  0.  0.
151  1.50  0.  0.
152  1.51  0.  0.
153  1.52  0.  0.
154  1.53  0.  0.
155  1.54  0.  0.
156  1.55  0.  0.
157  1.56  0.  0.
158  1.57  0.  0.
159  1.58  0.  0.
160  1.59  0.  0.
161  1.60  0.  0.
162  1.61  0.  0.
163  1.62  0.  0.
164  1.63  0.  0.
165  1.64  0.  0.
166  1.65  0.  0.
167  1.66  0.  0.
168  1.67  0.  0.
169  1.68  0.  0.
170  1.69  0.  0.
171  1.70  0.  0.
172  1.71  0.  0.
173  1.72  0.  0.
174  1.73  0.  0.
175  1.74  0.  0.
176  1.75  0.  0.
177  1.76  0.  0.
178  1.77  0.  0.
179  1.78  0.  0.
180  1.79  0.  0.
181  1.80  0.  0.
182  1.81  0.  0.
183  1.82  0.  0.
184  1.83  0.  0.
185  1.84  0.  0.
186  1.85  0.  0.
187  1.86  0.  0.
188  1.87  0.  0.
189  1.88  0.  0.
190  1.89  0.  0.
191  1.90  0.  0.
192  1.91  0.  0.
193  1.92  0.  0.
194  1.93  0.  0.
195  1.94  0.  0.
196  1.95  0.  0.
197  1.96  0.  0.
198  1.97  0.  0.
199  1.98  0.  0.
200  1.99  0.  0.
201  2.00  0.  0.
202  2.01  0.  0.
203  2.02  0.  0.
204  2.03  0.  0.
205  2.04  0.  0.
206  2.05  0.  0.
207  2.06  0.  0.
208  2.07  0.  0.
209  2.08  0.  0.
210  2.09  0.  0.
211  2.10  0.  0.
212  2.11  0.  0.
213  2.12  0.  0.
214  2.13  0.  0.
215  2.14  0.  0.
216  2.15  0.  0.
217  2.16  0.  0.
218  2.17  0.  0.
219  2.18  0.  0.
220  2.19  0.  0.
221  2.20  0.  0.
222  2.21  0.  0.
223  2.22  0.  0.
224  2.23  0.  0.
225  2.24  0.  0.
226  2.25  0.  0.
227  2.26  0.  0.
228  2.27  0.  0.
229  2.28  0.  0.
230  2.29  0.  0.
231  2.30  0.  0.
232  2.31  0.  0.
233  2.32  0.  0.
234  2.33  0.  0.
235  2.34  0.  0.
236  2.35  0.  0.
237  2.36  0.  0.
238  2.37  0.  0.
239  2.38  0.  0.
240  2.39  0.  0.
241  2.40  0.  0.
242  2.41  0.  0.
243  2.42  0.  0.
244  2.43  0.  0.
245  2.44  0.  0.
246  2.45  0.  0.
247  2.46  0.  0.
248  2.47  0.  0.
249  2.48  0.  0.
250  2.49  0.  0.
251  2.50  0.  0.
252  2.51  0.  0.
253  2.52  0.  0.
254  2.53  0.  0.
255  2.54  0.  0.
256  2.55  0.  0.
257  2.56  0.  0.
258  2.57  0.  0.
259  2.58  0.  0.
260  2.59  0.  0.
261  2.60  0.  0.
262  2.61  0.  0.
263  2.62  0.  0.
264  2.63  0.  0.
265  2.64  0.  0.
266  2.65  0.  0.
267  2.66  0.  0.
268  2.67  0.  0.
269  2.68  0.  0.
270  2.69  0.  0.
271  2.70  0.  0.
272  2.71  0.  0.
273  2.72  0.  0.
274  2.73  0.  0.
275  2.74  0.  0.
276  2.75  0.  0.
277  2.76  0.  0.
278  2.77  0.  0.
279  2.78  0.  0.
280  2.79  0.  0.
281  2.80  0.  0.
282  2.81  0.  0.
283  2.82  0.  0.
284  2.83  0.  0.
285  2.84  0.  0.
286  2.85  0.  0.
287  2.86  0.  0.
288  2.87  0.  0.
289  2.88  0.  0.
290  2.89  0.  0.
291  2.90  0.  0.
292  2.91  0.  0.
293  2.92  0.  0.
294  2.93  0.  0.
295  2.94  0.  0.
296  2.95  0.  0.
297  2.96  0.  0.
298  2.97  0.  0.
299  2.98  0.  0.
300  2.99  0.  0.
301  3.00  0.  0.
302  3.01  0.  0.
303  3.02  0.  0.
304  3.03  0.  0.
305  3.04  0.  0.
306  3.05  0.  0.
307  3.06  0.  0.
308  3.07  0.  0.
309  3.08  0.  0.
310  3.09  0.  0.
311  3.10  0.  0.
312  3.11  0.  0.
313  3.12  0.  0.
314  3.13  0.  0.
315  3.14  0.  0.
316  3.15  0.  0.
317  3.16  0.  0.
318  3.17  0.  0.
319  3.18  0.  0.
320  3.19  0.  0.
321  3.20  0.  0.
322  3.21  0.  0.
323  3.22  0.  0.
324  3.23  0.  0.
325  3.24  0.  0.
326  3.25  0.  0.
327  3.26  0.  0.
328  3.27  0.  0.
329  3.28  0.  0.
330  3.29  0.  0.
331  3.30  0.  0.
332  3.31  0.  0.
333  3.32  0.  0.
334  3.33  0.  0.
335  3.34  0.  0.
336  3.35  0.  0.
337  3.36  0.  0.
338  3.37  0.  0.
339  3.38  0.  0.
340  3.39  0.  0.
341  3.40  0.  0.
342  3.41  0.  0.
343  3.42  0.  0.
344  3.43  0.  0.
345  3.44  0.  0.
346  3.45  0.  0.
347  3.46  0.  0.
348  3.47  0.  0.
349  3.48  0.  0.
350  3.49  0.  0.
351  3.50  0.  0.
352  3.51  0.  0.
353  3.52  0.  0.
354  3.53  0.  0.
355  3.54  0.  0.
356  3.55  0.  0.
357  3.56  0.  0.
358  3.57  0.  0.
359  3.58  0.  0.
360  3.59  0.  0.
361  3.60  0.  0.
362  3.61  0.  0.
363  3.62  0.  0.
364  3.63  0.  0.
365  3.64  0.  0.
366  3.65  0.  0.
367  3.66  0.  0.
368  3.67  0.  0.
369  3.68  0.  0.
370  3.69  0.  0.
371  3.70  0.  0.
372  3.71  0.  0.
373  3.72  0.  0.
374  3.73  0.  0.
375  3.74  0.  0.
376  3.75  0.  0.
377  3.76  0.  0.
378  3.77  0.  0.
379  3.78  0.  0.
380  3.79  0.  0.
381  3.80  0.  0.
382  3.81  0.  0.
383  3.82  0.  0.
384  3.83  0.  0.
385  3.84  0.  0.
386  3.85  0.  0.
387  3.86  0.  0.
388  3.87  0.  0.
389  3.88  0.  0.
390  3.89  0.  0.
391  3.90  0.  0.
392  3.91  0.  0.
393  3.92  0.  0.
394  3.93  0.  0.
395  3.94  0.  0.
396  3.95  0.  0.
397  3.96  0.  0.
398  3.97  0.  0.
399  3.98  0.  0.
400  3.99  0.  0.
401  4.00  0.  0.
402  4.01  0.  0.
403  4.02  0.  0.
404  4.03  0.  0.
405  4.04  0.  0.
406  4.05  0.  0.
407  4.06  0.  0.
408  4.07  0.  0.
409  4.08  0.  0.
410  4.09  0.  0.
411  4.10  0.  0.
412  4.11  0.  0.
413  4.12  0.  0.
414  4.13  0.  0.
415  4.14  0.  0.
416  4.15  0.  0.
417  4.16  0.  0.
418  4.17  0.  0.
419  4.18  0.  0.
420  4.19  0.  0.
421  4.20  0.  0.
422  4.21  0.  0.
423  4.22  0.  0.
424  4.23  0.  0.
425  4.24  0.  0.
426  4.25  0.  0.
427  4.26  0.  0.
428  4.27  0.  0.
429  4.28  0.  0.
430  4.29  0.  0.
431  4.30  0.  0.
432  4.31  0.  0.
433  4.32  0.  0.
434  4.33  0.  0.
435  4.34  0.  0.
436  4.35  0.  0.
437  4.36  0.  0.
438  4.37  0.  0.
439  4.38  0.  0.
440  4.39  0.  0.
441  4.40  0.  0.
442  4.41  0.  0.
443  4.42  0.  0.
444  4.43  0.  0.
445  4.44  0.  0.
446  4.45  0.  0.
447  4.46  0.  0.
448  4.47  0.  0.
449  4.48  0.  0.
450  4.49  0.  0.
451  4.50  0.  0.
452  4.51  0.  0.
453  4.52  0.  0.
454  4.53  0.  0.
455  4.54  0.  0.
456  4.55  0.  0.
457  4.56  0.  0.
458  4.57  0.  0.
459  4.58  0.  0.
460  4.59  0.  0.
461  4.60  0.  0.
462  4.61  0.  0.
463  4.62  0.  0.
464  4.63  0.  0.
465  4.64  0.  0.
466  4.65  0.  0.
467  4.66  0.  0.
468  4.67  0.  0.
469  4.68  0.  0.
470  4.69  0.  0.
471  4.70  0.  0.
472  4.71  0.  0.
473  4.72  0.  0.
474  4.73  0.  0.
475  4.74  0.  0.
476  4.75  0.  0.
477  4.76  0.  0.
478  4.77  0.  0.
479  4.78  0.  0.
480  4.79  0.  0.
481  4.80  0.  0.
482  4.81  0.  0.
483  4.82  0.  0.
484  4.83  0.  0.
485  4.84  0.  0.
486  4.85  0.  0.
487  4.86  0.  0.
488  4.87  0.  0.
489  4.88  0.  0.
490  4.89  0.  0.
491  4.90  0.  0.
492  4.91  0.  0.
493  4.92  0.  0.
494  4.93  0.  0.
495  4.94  0.  0.
496  4.95  0.  0.
497  4.96  0.  0.
498  4.97  0.  0.
499  4.98  0.  0.
500  4.99  0.  0.
501  5.00  0.  0.
502  5.01  0.  0.
503  5.02  0.  0.
504  5.03  0.  0.
505  5.04  0.  0.
506  5.05  0.  0.
507  5.06  0.  0.
508  5.07  0.  0.
509  5.08  0.  0.
510  5.09  0.  0.
511  5.10  0.  0.
512  5.11  0.  0.
513  5.12  0.  0.
514  5.13  0.  0.
515  5.14  0.  0.
516  5.15  0.  0.
517  5.16  0.  0.
518  5.17  0.  0.
519  5.18  0.  0.
520  5.19  0.  0.
521  5.20  0.  0.
522  5.21  0.  0.
523  5.22  0.  0.
524  5.23  0.  0.
525  5.24  0.  0.
526  5.25  0.  0.
527  5.26  0.  0.
528  5.27  0.  0.
529  5.28  0.  0.
530  5.29  0.  0.
531  5.30  0.  0.
532  5.31  0.  0.
533  5.32  0.  0.
534  5.33  0.  0.
535  5.34  0.  0.
536  5.35  0.  0.
537  5.36  0.  0.
538  5.37  0.  0.
539  5.38  0.  0.
540  5.39  0.  0.
541  5.40  0.  0.
542  5.41  0.  0.
543  5.42  0.  0.
544  5.43  0.  0.
545  5.44  0.  0.
546  5.45  0.  0.
547  5.46  0.  0.
548  5.47  0.  0.
549  5.48  0.  0.
550  5.49  0.  0.
551  5.50  0.  0.
552  5.51  0.  0.
553  5.52  0.  0.
554  5.53  0.  0.
555  5.54  0.  0.
556  5.55  0.  0.
557  5.56  0.  0.
558  5.57  0.  0.
559  5.58  0.  0.
560  5.59  0.  0.
561  5.60  0.  0.
562  5.61  0.  0.
563  5.62  0.  0.
564  5.63  0.  0.
565  5.64  0.  0.
566  5.65  0.  0.
567  5.66  0.  0.
568  5.67  0.  0.
569  5.68  0.  0.
570  5.69  0.  0.
571  5.70  0.  0.
572  5.71  0.  0.
573  5.72  0.  0.
574  5.73  0.  0.
575  5.74  0.  0.
576  5.75  0.  0.
577  5.76  0.  0.
578  5.77  0.  0.
579  5.78  0.  0.
580  5.79  0.  0.
581  5.80  0.  0.
582  5.81  0.  0.
583  5.82  0.  0.
584  5.83  0.  0.
585  5.84  0.  0.
586  5.85  0.  0.
587  5.86  0.  0.
588  5.87  0.  0.
589  5.88  0.  0.
590  5.89  0.  0.
591  5.90  0.  0.
592  5.91  0.  0.
593  5.92  0.  0.
594  5.93  0.  0.
595  5.94  0.  0.
596  5.95  0.  0.
597  5.96  0.  0.
598  5.97  0.  0.
599  5.98  0.  0.
600  5.99  0.  0.
1                         1.3184646480854E+01  1.0321691746100E+00
1  0.0000000000000E+00 -2.5975310929960E-09  1.1790140447276E-08
2  1.0000000000000E-02  1.6811299466807E-03 -8.0160150214821E-04
3  2.0000000000000E-02  6.7197216421262E-03 -3.2086375493848E-03
4  3.0000000000000E-02  1.5101342011097E-02 -7.2275591076199E-03
5  4.0000000000000E-02  2.6801808761494E-02 -1.2868313012822E-02
6  5.0000000000000E-02  4.1787005324037E-02 -2.0143160564227E-02
7  6.0000000000000E-02  6.0012632990762E-02 -2.9065074362095E-02
8  7.0000000000000E-02  8.1423911114013E-02 -3.9645762579746E-02
9  8.0000000000000E-02  1.0595523882518E-01 -5.1893381649740E-02
10  9.0000000000000E-02  1.3352983396795E-01 -6.5810008514709E-02
11  1.0000000000000E-01  1.6405936675329E-01 -8.1388951871455E-02
12  1.1000000000000E-01  1.9744360698143E-01 -9.8611987996372E-02
13  1.2000000000000E-01  2.3357010450133E-01 -1.1744661060863E-01
14  1.3000000000000E-01  2.7231392286450E-01 -1.3784338569266E-01
15  1.4000000000000E-01  3.1353744586452E-01 -1.5973350120975E-01
16  1.5000000000000E-01  3.5709027583954E-01 -1.8302659819290E-01
17  1.6000000000000E-01  4.0280924126556E-01 -2.0760896391172E-01
18  1.7000000000000E-01  4.5051852931541E-01 -2.3334215975202E-01
19  1.8000000000000E-01  5.0002995674153E-01 -2.6006214637041E-01
20  1.9000000000000E-01  5.5114338971649E-01 -2.8757895680413E-01
21  2.0000000000000E-01  6.0364732019634E-01 -3.1567695483755E-01
22  2.1000000000000E-01  6.5731960303352E-01 -3.4411570137962E-01
23  2.2000000000000E-01  7.1192835453894E-01 -3.7263143626285E-01
24  2.3000000000000E-01  7.6723300956252E-01 -4.0093916711948E-01
25  2.4000000000000E-01  8.2298553051898E-01 -4.2873534122994E-01
26  2.5000000000000E-01  8.7893175821932E-01 -4.5570106087700E-01
27  2.6000000000000E-01  9.3481289096967E-01 -4.8150578817591E-01
28  2.7000000000000E-01  9.9036707525094E-01 -5.0581147196568E-01
29  2.8000000000000E-01  1.0453310884770E+00 -5.2827701749674E-01
30  2.9000000000000E-01  1.0994420919166E+00 -5.4856300965011E-01
31  3.0000000000000E-01  1.1524394299171E+00 -5.6633659254894E-01
32  3.1000000000000E-01  1.2040664501402E+00 -5.8127640289411E-01
33  3.2000000000000E-01  1.2540723186440E+00 -5.9307745133746E-01
34  3.3000000000000E-01  1.3022138033568E+00 -6.0145584579724E-01
35  3.4000000000000E-01  1.3482569997839E+00 -6.0615325285946E-01
36  3.5000000000000E-01  1.3919789736784E+00 -6.0694099826081E-01
37  3.6000000000000E-01  1.4331692968638E+00 -6.0362371481936E-01
38  3.7000000000000E-01  1.4716314543892E+00 -5.9604245590082E-01
39  3.8000000000000E-01  1.5071841036825E+00 -5.8407720436027E-01
40  3.9000000000000E-01  1.5396621692828E+00 -5.6764872059709E-01
41  4.0000000000000E-01  1.5689177600124E+00 -5.4671968857787E-01
42  4.1000000000000E-01  1.5948208990082E+00 -5.2129513504136E-01
43  4.2000000000000E-01  1.6172600607891E+00 -4.9142211420057E-01
44  4.3000000000000E-01  1.6361425133983E+00 -4.5718866766820E-01
45  4.4000000000000E-01  1.6513944675297E+00 -4.1872208661481E-01
46  4.5000000000000E-01  1.6629610383291E+00 -3.7618651988195E-01
47  4.6000000000000E-01  1.6708060291695E+00 -3.2977998748473E-01
48  4.7000000000000E-01  1.6749115500283E+00 -2.7973087323872E-01
49  4.8000000000000E-01  1.6752774860794E+00 -2.2629398275678E-01
50  4.9000000000000E-01  1.6719208346653E+00 -1.6974626344606E-01
51  5.0000000000000E-01  1.6648749308761E+00 -1.1038229110764E-01
52  5.1000000000000E-01  1.6541885834809E+00 -4.8509633073615E-02
53  5.2000000000000E-01  1.6399251438995E+00  1.5555799651700E-02
54  5.3000000000000E-01  1.6221615312315E+00  8.1494299143125E-02
55  5.4000000000000E-01  1.6009872360890E+00  1.4898669736887E-01
56  5.5000000000000E-01  1.5765033250988E+00  2.1771839037033E-01
57  5.6000000000000E-01  1.5488214664838E+00  2.8738295596680E-01
58  5.7000000000000E-01  1.5180629951385E+00  3.5768528252750E-01
59  5.8000000000000E-01  1.4843580331385E+00  4.2834413998944E-01
60  5.9000000000000E-01  1.4478446787245E+00  4.9909413986172E-01
61  6.0000000000000E-01  1.4086682735730E+00  5.6968704805524E-01
62  6.1000000000000E-01  1.3669807546852E+00  6.3989243258617E-01
63  6.2000000000000E-01  1.3229400935913E+00  7.0949764705149E-01
64  6.3000000000000E-01  1.2767098218867E+00  7.7830716978441E-01
65  6.4000000000000E-01  1.2284586384839E+00  8.4614133725906E-01
66  6.5000000000000E-01  1.1783600904948E+00  9.1283452813906E-01
67  6.6000000000000E-01  1.1265923164370E+00  9.7823287086145E-01
68  6.7000000000000E-01  1.0733378376010E+00  1.0421915623660E+00
69  6.8000000000000E-01  1.0187833809882E+00  1.1045718980984E+00
70  6.9000000000000E-01  9.6311971532519E-01  1.1652381233684E+00
71  7.0000000000000E-01  9.0654148033416E-01  1.2240542232231E+00
72  7.1000000000000E-01  8.4924698874121E-01  1.2808807719627E+00
73  7.2000000000000E-01  7.9143798047106E-01  1.3355719641191E+00
74  7.3000000000000E-01  7.3331930911976E-01  1.3879729460591E+00
75  7.4000000000000E-01  6.7509854211684E-01  1.4379175613651E+00
76  7.5000000000000E-01  6.1698545796300E-01  1.4852266138783E+00
77  7.6000000000000E-01  5.5919142652082E-01  1.5297067399507E+00
78  7.7000000000000E-01  5.0192866148853E-01  1.5711499662785E+00
79  7.8000000000000E-01  4.4540933782726E-01  1.6093340120512E+00
80  7.9000000000000E-01  3.8984457095464E-01  1.6440233744195E+00
81  8.0000000000000E-01  3.3544325886127E-01  1.6749712149638E+00
82  8.1000000000000E-01  2.8241079284259E-01  1.7019220424245E+00
83  8.2000000000000E-01  2.3094764714728E-01  1.7246151640117E+00
84  8.3000000000000E-01  1.8124786240377E-01  1.7427888547222E+00
85  8.4000000000000E-01  1.3349744207164E-01  1.7561851718419E+00
86  8.5000000000000E-01  8.7872685253403E-02  1.7645553208061E+00
87  8.6000000000000E-01  4.4538482873417E-02  1.7676654593813E+00
88  8.7000000000000E-01  3.6466073742820E-03  1.7653028102717E+00
89  8.8000000000000E-01 -3.4665971404217E-02  1.7572819382196E+00
90  8.9000000000000E-01 -7.0278709700163E-02  1.7434510368979E+00
91  9.0000000000000E-01 -1.0308901718490E-01  1.7236980637305E+00
92  9.1000000000000E-01 -1.3301365255552E-01  1.6979565575079E+00
93  9.2000000000000E-01 -1.5998995242752E-01  1.6662109744593E+00
94  9.3000000000000E-01 -1.8397686018409E-01  1.6285013833935E+00
95  9.4000000000000E-01 -2.0495572391040E-01  1.5849273696037E+00
96  9.5000000000000E-01 -2.2293083586033E-01  1.5356510103330E+00
97  9.6000000000000E-01 -2.3792969001642E-01  1.4808988014920E+00
98  9.7000000000000E-01 -2.5000293913590E-01  1.4209624356872E+00
99  9.8000000000000E-01 -2.5922403813610E-01  1.3561983550545E+00
100  9.9000000000000E-01 -2.6568856664344E-01  1.2870260283833E+00
101  1.0000000000000E+00 -2.6951322989468E-01  1.2139249300246E+00
102  1.0100000000000E+00 -2.7083454378806E-01  1.1374302274409E+00
103  1.0200000000000E+00 -2.6980721659079E-01  1.0581272143181E+00
104  1.0300000000000E+00 -2.6660224646515E-01  9.7664455621204E-01
105  1.0400000000000E+00 -2.6140476042005E-01  8.9364644504221E-01
106  1.0500000000000E+00 -2.5441162636481E-01  8.0982378659705E-01
107  1.0600000000000E+00 -2.4582887550259E-01  7.2588457097713E-01
108  1.0700000000000E+00 -2.3586897719473E-01  6.4254359883241E-01
109  1.0800000000000E+00 -2.2474801252999E-01  5.6051175577145E-01
110  1.0900000000000E+00 -2.1268279603999E-01  4.8048504294318E-01
111  1.1000000000000E+00 -1.9988799719993E-01  4.0313358297453E-01
112  1.1100000000000E+00 -1.8657331448925E-01  3.2909082693271E-01
113  1.1200000000000E+00 -1.7294075479365E-01  2.5894318944246E-01
114  1.1300000000000E+00 -1.5918206979358E-01  1.9322033544007E-01
115  1.1400000000000E+00 -1.4547639869927E-01  1.3238633323862E-01
116  1.1500000000000E+00 -1.3198816329083E-01  7.6831874734327E-02
117  1.1600000000000E+00 -1.1886525675464E-01  2.6867744914839E-02
118  1.1700000000000E+00 -1.0623756235078E-01 -1.7280300343721E-02
119  1.1800000000000E+00 -9.4215831620356E-02 -5.5475116356651E-02
120  1.1900000000000E+00 -8.2890944727270E-02 -8.7670110531407E-02
121  1.2000000000000E+00 -7.2333567854077E-02 -1.1390947443639E-01
122  1.2100000000000E+00 -6.2594214368815E-02 -1.3432667525688E-01
123  1.2200000000000E+00 -5.3703708079536E-02 -1.4914121174036E-01
124  1.2300000000000E+00 -4.5674038323780E-02 -1.5865367748781E-01
125  1.2400000000000E+00 -3.8499588191580E-02 -1.6323921178428E-01
126  1.2500000000000E+00 -3.2158709023955E-02 -1.6333945430693E-01
127  1.2600000000000E+00 -2.6615606571286E-02 -1.5945315451792E-01
128  1.2700000000000E+00 -2.1822497134492E-02 -1.5212561800980E-01
129  1.2800000000000E+00 -1.7721985711829E-02 -1.4193720022009E-01
130  1.2900000000000E+00 -1.4249612808025E-02 -1.2949108199029E-01
131  1.3000000000000E+00 -1.1336512292540E-02 -1.1540058067650E-01
132  1.3100000000000E+00 -8.9121195758151E-03 -1.0027626466556E-01
133  1.3200000000000E+00 -6.9068825813598E-03 -8.4713097400573E-02
134  1.3300000000000E+00 -5.2548101164225E-03 -6.9278223803695E-02
135  1.3400000000000E+00 -3.8975448875793E-03 -5.4493825938090E-02
136  1.3500000000000E+00 -2.8035016701465E-03 -4.0768128030763E-02
137  1.3600000000000E+00 -1.9304568502145E-03 -2.8519214441854E-02
138  1.3700000000000E+00 -1.2368551576904E-03 -1.8136454524639E-02
139  1.3800000000000E+00 -6.9731733813877E-04 -9.9258488220432E-03
140  1.3900000000000E+00 -3.0334587792341E-04 -4.1068489299297E-03
141  1.4000000000000E+00 -6.3890464475046E-05 -8.0801853404789E-04
142  1.4100000000000E+00  3.2512159971703E-06  3.8888980673929E-05
143  1.4200000000000E+00 -1.0890022290504E-06 -1.3301340042404E-05
144  1.43  0.  0.
145  1.44 -0. -0.
146  1.45  0.  0.
147  1.46  0.  0.
148  1.47  0.  0.
149  1.48  0.  0.
150  1.49  0.  0.
151  1.50  0.  0.
152  1.51  0.  0.
153  1.52  0.  0.
154  1.53  0.  0.
155  1.54  0.  0.
156  1.55  0.  0.
157  1.56  0.  0.
158  1.57  0.  0.
159  1.58  0.  0.
160  1.59  0.  0.
161  1.60  0.  0.
162  1.61  0.  0.
163  1.62  0.  0.
164  1.63  0.  0.
165  1.64  0.  0.
166  1.65  0.  0.
167  1.66  0.  0.
168  1.67  0.  0.
169  1.68  0.  0.
170  1.69  0.  0.
171  1.70  0.  0.
172  1.71  0.  0.
173  1.72  0.  0.
174  1.73  0.  0.
175  1.74  0.  0.
176  1.75  0.  0.
177  1.76  0.  0.
178  1.77  0.  0.
179  1.78  0.  0.
180  1.79  0.  0.
181  1.80  0.  0.
182  1.81  0.  0.
183  1.82  0.  0.
184  1.83  0.  0.
185  1.84  0.  0.
186  1.85  0.  0.
187  1.86  0.  0.
188  1.87  0.  0.
189  1.88  0.  0.
190  1.89  0.  0.
191  1.90  0.  0.
192  1.91  0.  0.
193  1.92  0.  0.
194  1.93  0.  0.
195  1.94  0.  0.
196  1.95  0.  0.
197  1.96  0.  0.
198  1.97  0.  0.
199  1.98  0.  0.
200  1.99  0.  0.
201  2.00  0.  0.
202  2.01  0.  0.
203  2.02  0.  0.
204  2.03  0.  0.
205  2.04  0.  0.
206  2.05  0.  0.
207  2.06  0.  0.
208  2.07  0.  0.
209  2.08  0.  0.
210  2.09  0.  0.
211  2.10  0.  0.
212  2.11  0.  0.
213  2.12  0.  0.
214  2.13  0.  0.
215  2.14  0.  0.
216  2.15  0.  0.
217  2.16  0.  0.
218  2.17  0.  0.
219  2.18  0.  0.
220  2.19  0.  0.
221  2.20  0.  0.
222  2.21  0.  0.
223  2.22  0.  0.
224  2.23  0.  0.
225  2.24  0.  0.
226  2.25  0.  0.
227  2.26  0.  0.
228  2.27  0.  0.
229  2.28  0.  0.
230  2.29  0.  0.
231  2.30  0.  0.
232  2.31  0.  0.
233  2.32  0.  0.
234  2.33  0.  0.
235  2.34  0.  0.
236  2.35  0.  0.
237  2.36  0.  0.
238  2.37  0.  0.
239  2.38  0.  0.
240  2.39  0.  0.
241  2.40  0.  0.
242  2.41  0.  0.
243  2.42  0.  0.
244  2.43  0.  0.
245  2.44  0.  0.
246  2.45  0.  0.
247  2.46  0.  0.
248  2.47  0.  0.
249  2.48  0.  0.
250  2.49  0.  0.
251  2.50  0.  0.
252  2.51  0.  0.
253  2.52  0.  0.
254  2.53  0.  0.
255  2.54  0.  0.
256  2.55  0.  0.
257  2.56  0.  0.
258  2.57  0.  0.
259  2.58  0.  0.
260  2.59  0.  0.
261  2.60  0.  0.
262  2.61  0.  0.
263  2.62  0.  0.
264  2.63  0.  0.
265  2.64  0.  0.
266  2.65  0.  0.
267  2.66  0.  0.
268  2.67  0.  0.
269  2.68  0.  0.
270  2.69  0.  0.
271  2.70  0.  0.
272  2.71  0.  0.
273  2.72  0.  0.
274  2.73  0.  0.
275  2.74  0.  0.