Mc    ONCVPSP-4.0.1  r_core=   1.40796   1.45071   1.40796   1.60600
115.0000     23.0000      230612    zatom,zion,pspd
8      11   3     4   600     0    pspcod,pspxc,lmax,lloc,mmax,r2well
5.99000000  5.00000000  0.00000000    rchrg fchrg qchrg
2     3     3     2    nproj
3     1           extension_switch
4     3     2    nprojso
0                         1.5456740278680E+01 -2.3906209927270E-01
1  0.0000000000000E+00  3.1525160260060E-10  1.1151581991165E-08
2  1.0000000000000E-02  7.7686778376130E-02  1.6087312272967E-02
3  2.0000000000000E-02  1.5520720549906E-01  3.2380096175494E-02
4  3.0000000000000E-02  2.3239516604750E-01  4.9077243940999E-02
5  4.0000000000000E-02  3.0908501990882E-01  6.6364631615748E-02
6  5.0000000000000E-02  3.8511184806264E-01  8.4408964541596E-02
7  6.0000000000000E-02  4.6031170816936E-01  1.0335203896800E-01
8  7.0000000000000E-02  5.3452190271956E-01  1.2330554507882E-01
9  8.0000000000000E-02  6.0758126228508E-01  1.4434652556780E-01
10  9.0000000000000E-02  6.7933044603026E-01  1.6651359039278E-01
11  1.0000000000000E-01  7.4961226119972E-01  1.8980397275883E-01
12  1.1000000000000E-01  8.1827200280656E-01  2.1417149404559E-01
13  1.2000000000000E-01  8.8515781421016E-01  2.3952548665853E-01
14  1.3000000000000E-01  9.5012106870814E-01  2.6573070403420E-01
15  1.4000000000000E-01  1.0130167716821E+00  2.9260822666968E-01
16  1.5000000000000E-01  1.0737039822436E+00  3.1993735249597E-01
17  1.6000000000000E-01  1.1320462527372E+00  3.4745843959703E-01
18  1.7000000000000E-01  1.1879120838817E+00  3.7487664960591E-01
19  1.8000000000000E-01  1.2411753927840E+00  4.0186652149563E-01
20  1.9000000000000E-01  1.2917159905449E+00  4.2807728830514E-01
21  2.0000000000000E-01  1.3394200657149E+00  4.5313883395397E-01
22  2.1000000000000E-01  1.3841806694473E+00  4.7666817402336E-01
23  2.2000000000000E-01  1.4258981978519E+00  4.9827633348491E-01
24  2.3000000000000E-01  1.4644808667812E+00  5.1757548606986E-01
25  2.4000000000000E-01  1.4998451740820E+00  5.3418621445996E-01
26  2.5000000000000E-01  1.5319163442320E+00  5.4774474786036E-01
27  2.6000000000000E-01  1.5606287502484E+00  5.5791003383727E-01
28  2.7000000000000E-01  1.5859263078044E+00  5.6437050456204E-01
29  2.8000000000000E-01  1.6077628366291E+00  5.6685040372952E-01
30  2.9000000000000E-01  1.6261023844794E+00  5.6511554928294E-01
31  3.0000000000000E-01  1.6409195092663E+00  5.5897841849437E-01
32  3.1000000000000E-01  1.6521995152869E+00  5.4830245568186E-01
33  3.2000000000000E-01  1.6599386399413E+00  5.3300551859824E-01
34  3.3000000000000E-01  1.6641441878055E+00  5.1306239697959E-01
35  3.4000000000000E-01  1.6648346094703E+00  4.8850635551975E-01
36  3.5000000000000E-01  1.6620395231326E+00  4.5942967325012E-01
37  3.6000000000000E-01  1.6557996775355E+00  4.2598317153705E-01
38  3.7000000000000E-01  1.6461668554799E+00  3.8837474323360E-01
39  3.8000000000000E-01  1.6332037177612E+00  3.4686691551247E-01
40  3.9000000000000E-01  1.6169835880218E+00  3.0177349814019E-01
41  4.0000000000000E-01  1.5975901796214E+00  2.5345538702182E-01
42  4.1000000000000E-01  1.5751172662246E+00  2.0231560937104E-01
43  4.2000000000000E-01  1.5496682983631E+00  1.4879371149217E-01
44  4.3000000000000E-01  1.5213559687480E+00  9.3359602588421E-02
45  4.4000000000000E-01  1.4903017295749E+00  3.6506977976184E-02
46  4.5000000000000E-01  1.4566352654743E+00 -2.1253547627461E-02
47  4.6000000000000E-01  1.4204939261104E+00 -7.9401461611328E-02
48  4.7000000000000E-01  1.3820221227122E+00 -1.3741339309421E-01
49  4.8000000000000E-01  1.3413706930353E+00 -1.9477003538933E-01
50  4.9000000000000E-01  1.2986962393989E+00 -2.5096282034169E-01
51  5.0000000000000E-01  1.2541604445169E+00 -3.0550022069217E-01
52  5.1000000000000E-01  1.2079293698497E+00 -3.5791356639175E-01
53  5.2000000000000E-01  1.1601727411502E+00 -4.0776227298918E-01
54  5.3000000000000E-01  1.1110632257603E+00 -4.5463839457360E-01
55  5.4000000000000E-01  1.0607757060464E+00 -4.9817042994453E-01
56  5.5000000000000E-01  1.0094865531456E+00 -5.3802632834693E-01
57  5.6000000000000E-01  9.5737290494156E-01 -5.7391565984874E-01
58  5.7000000000000E-01  9.0461195189770E-01 -6.0559093483040E-01
59  5.8000000000000E-01  8.5138023407103E-01 -6.3284807666456E-01
60  5.9000000000000E-01  7.9785295230203E-01 -6.5552607104266E-01
61  6.0000000000000E-01  7.4420329625052E-01 -6.7350583411167E-01
62  6.1000000000000E-01  6.9060179162104E-01 -6.8670835919313E-01
63  6.2000000000000E-01  6.3721566860863E-01 -6.9509221795943E-01
64  6.3000000000000E-01  5.8420825330266E-01 -6.9865050616766E-01
65  6.4000000000000E-01  5.3173838351819E-01 -6.9740733606310E-01
66  6.5000000000000E-01  4.7995985028987E-01 -6.9141398708171E-01
67  6.6000000000000E-01  4.2902086606416E-01 -6.8074483326926E-01
68  6.7000000000000E-01  3.7906356046722E-01 -6.6549316972869E-01
69  6.8000000000000E-01  3.3022350440980E-01 -6.4576706129840E-01
70  6.9000000000000E-01  2.8262926321659E-01 -6.2168533452105E-01
71  7.0000000000000E-01  2.3640197943630E-01 -5.9337382881229E-01
72  7.1000000000000E-01  1.9165498599753E-01 -5.6096201468841E-01
73  7.2000000000000E-01  1.4849345042028E-01 -5.2458007612896E-01
74  7.3000000000000E-01  1.0701405087000E-01 -4.8435654087046E-01
75  7.4000000000000E-01  6.7304684943454E-02 -4.4041652694256E-01
76  7.5000000000000E-01  2.9444212196994E-02 -3.9288065642230E-01
77  7.6000000000000E-01 -6.4977684398589E-03 -3.4186466858404E-01
78  7.7000000000000E-01 -4.0461105087728E-02 -2.8747974480149E-01
79  7.8000000000000E-01 -7.2395241771274E-02 -2.2983353717382E-01
80  7.9000000000000E-01 -1.0225932818409E-01 -1.6903187238286E-01
81  8.0000000000000E-01 -1.3002228875599E-01 -1.0518108223195E-01
82  8.1000000000000E-01 -1.5566284935807E-01 -3.8390893158147E-02
83  8.2000000000000E-01 -1.7916951996592E-01  3.1222210783004E-02
84  8.3000000000000E-01 -2.0054053163481E-01  1.0353125292881E-01
85  8.4000000000000E-01 -2.1978372622853E-01  1.7839477223097E-01
86  8.5000000000000E-01 -2.3691639749143E-01  2.5565270103605E-01
87  8.6000000000000E-01 -2.5196508226443E-01  3.3512224700290E-01
88  8.7000000000000E-01 -2.6496530092218E-01  4.1659391879033E-01
89  8.8000000000000E-01 -2.7596124645144E-01  4.9982783685490E-01
90  8.9000000000000E-01 -2.8500542199759E-01  5.8455046894501E-01
91  9.0000000000000E-01 -2.9215822717522E-01  6.7045192462322E-01
92  9.1000000000000E-01 -2.9748749396376E-01  7.5718393445139E-01
93  9.2000000000000E-01 -3.0106797358417E-01  8.4435862744885E-01
94  9.3000000000000E-01 -3.0298077636969E-01  9.3154820528795E-01
95  9.4000000000000E-01 -3.0331276729142E-01  1.0182855937067E+00
96  9.5000000000000E-01 -3.0215592046848E-01  1.1040661311346E+00
97  9.6000000000000E-01 -2.9960663666881E-01  1.1883503319597E+00
98  9.7000000000000E-01 -2.9576502847774E-01  1.2705677376777E+00
99  9.8000000000000E-01 -2.9073417846279E-01  1.3501218438633E+00
100  9.9000000000000E-01 -2.8461937628063E-01  1.4263960650484E+00
101  1.0000000000000E+00 -2.7752734124126E-01  1.4987606737216E+00
102  1.0100000000000E+00 -2.6956543735031E-01  1.5665806243903E+00
103  1.0200000000000E+00 -2.6084088828044E-01  1.6292241495337E+00
104  1.0300000000000E+00 -2.5146000006314E-01  1.6860719918752E+00
105  1.0400000000000E+00 -2.4152739953190E-01  1.7365271172681E+00
106  1.0500000000000E+00 -2.3114529667660E-01  1.7800247351231E+00
107  1.0600000000000E+00 -2.2041277907832E-01  1.8160424391237E+00
108  1.0700000000000E+00 -2.0942514647752E-01  1.8441102704043E+00
109  1.0800000000000E+00 -1.9827329328328E-01  1.8638204986914E+00
110  1.0900000000000E+00 -1.8704314645311E-01  1.8748369143797E+00
111  1.1000000000000E+00 -1.7581516566565E-01  1.8769034262826E+00
112  1.1100000000000E+00 -1.6466391207265E-01  1.8698517659290E+00
113  1.1200000000000E+00 -1.5365769115960E-01  1.8536081097319E+00
114  1.1300000000000E+00 -1.4285827437430E-01  1.8281984450302E+00
115  1.1400000000000E+00 -1.3232070320968E-01  1.7937525246696E+00
116  1.1500000000000E+00 -1.2209317836528E-01  1.7505062771538E+00
117  1.1600000000000E+00 -1.1221703547594E-01  1.6988025650682E+00
118  1.1700000000000E+00 -1.0272680770193E-01  1.6390902130283E+00
119  1.1800000000000E+00 -9.3650374245230E-02  1.5719212572132E+00
120  1.1900000000000E+00 -8.5009192602367E-02  1.4979464012327E+00
121  1.2000000000000E+00 -7.6818611121375E-02  1.4179086966508E+00
122  1.2100000000000E+00 -6.9088257198698E-02  1.3326355008249E+00
123  1.2200000000000E+00 -6.1822495277411E-02  1.2430287984887E+00
124  1.2300000000000E+00 -5.5020947688840E-02  1.1500540066466E+00
125  1.2400000000000E+00 -4.8679070351412E-02  1.0547274137617E+00
126  1.2500000000000E+00 -4.2788774418286E-02  9.5810243334026E-01
127  1.2600000000000E+00 -3.7339084159908E-02  8.6125487848442E-01
128  1.2700000000000E+00 -3.2316820707114E-02  7.6526748681300E-01
129  1.2800000000000E+00 -2.7707300767898E-02  6.7121394419022E-01
130  1.2900000000000E+00 -2.3495039081712E-02  5.8014267040021E-01
131  1.3000000000000E+00 -1.9664443199081E-02  4.9306063984979E-01
132  1.3100000000000E+00 -1.6200489172382E-02  4.1091751546080E-01
133  1.3200000000000E+00 -1.3089371857986E-02  3.3459023411871E-01
134  1.3300000000000E+00 -1.0319081104864E-02  2.6486931746188E-01
135  1.3400000000000E+00 -7.8804643984601E-03  2.0243097541760E-01
136  1.3500000000000E+00 -5.7722578529793E-03  1.4768082642218E-01
137  1.3600000000000E+00 -3.9896449501071E-03  1.0109661871399E-01
138  1.3700000000000E+00 -2.5287306010930E-03  6.3118836369182E-02
139  1.3800000000000E+00 -1.3909908323385E-03  3.4018211171742E-02
140  1.3900000000000E+00 -5.8320063699691E-04  1.3901378755106E-02
141  1.4000000000000E+00 -1.1719978284259E-04  2.7090915326143E-03
142  1.4100000000000E+00  5.7453775285810E-06 -1.2924770475340E-04
143  1.4200000000000E+00 -1.9509327530320E-06  4.4326545887634E-05
144  1.43  0.  0.
145  1.44  0.  0.
146  1.45  0.  0.
147  1.46  0.  0.
148  1.47  0.  0.
149  1.48  0.  0.
150  1.49  0.  0.
151  1.50  0.  0.
152  1.51  0.  0.
153  1.52  0.  0.
154  1.53  0.  0.
155  1.54  0.  0.
156  1.55  0.  0.
157  1.56  0.  0.
158  1.57  0.  0.
159  1.58  0.  0.
160  1.59  0.  0.
161  1.60  0.  0.
162  1.61  0.  0.
163  1.62  0.  0.
164  1.63  0.  0.
165  1.64  0.  0.
166  1.65  0.  0.
167  1.66  0.  0.
168  1.67  0.  0.
169  1.68  0.  0.
170  1.69  0.  0.
171  1.70  0.  0.
172  1.71  0.  0.
173  1.72  0.  0.
174  1.73  0.  0.
175  1.74  0.  0.
176  1.75  0.  0.
177  1.76  0.  0.
178  1.77  0.  0.
179  1.78  0.  0.
180  1.79  0.  0.
181  1.80  0.  0.
182  1.81  0.  0.
183  1.82  0.  0.
184  1.83  0.  0.
185  1.84  0.  0.
186  1.85  0.  0.
187  1.86  0.  0.
188  1.87  0.  0.
189  1.88  0.  0.
190  1.89  0.  0.
191  1.90  0.  0.
192  1.91  0.  0.
193  1.92  0.  0.
194  1.93  0.  0.
195  1.94  0.  0.
196  1.95  0.  0.
197  1.96  0.  0.
198  1.97  0.  0.
199  1.98  0.  0.
200  1.99  0.  0.
201  2.00  0.  0.
202  2.01  0.  0.
203  2.02  0.  0.
204  2.03  0.  0.
205  2.04  0.  0.
206  2.05  0.  0.
207  2.06  0.  0.
208  2.07  0.  0.
209  2.08  0.  0.
210  2.09  0.  0.
211  2.10  0.  0.
212  2.11  0.  0.
213  2.12  0.  0.
214  2.13  0.  0.
215  2.14  0.  0.
216  2.15  0.  0.
217  2.16  0.  0.
218  2.17  0.  0.
219  2.18  0.  0.
220  2.19  0.  0.
221  2.20  0.  0.
222  2.21  0.  0.
223  2.22  0.  0.
224  2.23  0.  0.
225  2.24  0.  0.
226  2.25  0.  0.
227  2.26  0.  0.
228  2.27  0.  0.
229  2.28  0.  0.
230  2.29  0.  0.
231  2.30  0.  0.
232  2.31  0.  0.
233  2.32  0.  0.
234  2.33  0.  0.
235  2.34  0.  0.
236  2.35  0.  0.
237  2.36  0.  0.
238  2.37  0.  0.
239  2.38  0.  0.
240  2.39  0.  0.
241  2.40  0.  0.
242  2.41  0.  0.
243  2.42  0.  0.
244  2.43  0.  0.
245  2.44  0.  0.
246  2.45  0.  0.
247  2.46  0.  0.
248  2.47  0.  0.
249  2.48  0.  0.
250  2.49  0.  0.
251  2.50  0.  0.
252  2.51  0.  0.
253  2.52  0.  0.
254  2.53  0.  0.
255  2.54  0.  0.
256  2.55  0.  0.
257  2.56  0.  0.
258  2.57  0.  0.
259  2.58  0.  0.
260  2.59  0.  0.
261  2.60  0.  0.
262  2.61  0.  0.
263  2.62  0.  0.
264  2.63  0.  0.
265  2.64  0.  0.
266  2.65  0.  0.
267  2.66  0.  0.
268  2.67  0.  0.
269  2.68  0.  0.
270  2.69  0.  0.
271  2.70  0.  0.
272  2.71  0.  0.
273  2.72  0.  0.
274  2.73  0.  0.
275  2.74  0.  0.
276  2.75  0.  0.
277  2.76  0.  0.
278  2.77  0.  0.
279  2.78  0.  0.
280  2.79  0.  0.
281  2.80  0.  0.
282  2.81  0.  0.
283  2.82  0.  0.
284  2.83  0.  0.
285  2.84  0.  0.
286  2.85  0.  0.
287  2.86  0.  0.
288  2.87  0.  0.
289  2.88  0.  0.
290  2.89  0.  0.
291  2.90  0.  0.
292  2.91  0.  0.
293  2.92  0.  0.
294  2.93  0.  0.
295  2.94  0.  0.
296  2.95  0.  0.
297  2.96  0.  0.
298  2.97  0.  0.
299  2.98  0.  0.
300  2.99  0.  0.
301  3.00  0.  0.
302  3.01  0.  0.
303  3.02  0.  0.
304  3.03  0.  0.
305  3.04  0.  0.
306  3.05  0.  0.
307  3.06  0.  0.
308  3.07  0.  0.
309  3.08  0.  0.
310  3.09  0.  0.
311  3.10  0.  0.
312  3.11  0.  0.
313  3.12  0.  0.
314  3.13  0.  0.
315  3.14  0.  0.
316  3.15  0.  0.
317  3.16  0.  0.
318  3.17  0.  0.
319  3.18  0.  0.
320  3.19  0.  0.
321  3.20  0.  0.
322  3.21  0.  0.
323  3.22  0.  0.
324  3.23  0.  0.
325  3.24  0.  0.
326  3.25  0.  0.
327  3.26  0.  0.
328  3.27  0.  0.
329  3.28  0.  0.
330  3.29  0.  0.
331  3.30  0.  0.
332  3.31  0.  0.
333  3.32  0.  0.
334  3.33  0.  0.
335  3.34  0.  0.
336  3.35  0.  0.
337  3.36  0.  0.
338  3.37  0.  0.
339  3.38  0.  0.
340  3.39  0.  0.
341  3.40  0.  0.
342  3.41  0.  0.
343  3.42  0.  0.
344  3.43  0.  0.
345  3.44  0.  0.
346  3.45  0.  0.
347  3.46  0.  0.
348  3.47  0.  0.
349  3.48  0.  0.
350  3.49  0.  0.
351  3.50  0.  0.
352  3.51  0.  0.
353  3.52  0.  0.
354  3.53  0.  0.
355  3.54  0.  0.
356  3.55  0.  0.
357  3.56  0.  0.
358  3.57  0.  0.
359  3.58  0.  0.
360  3.59  0.  0.
361  3.60  0.  0.
362  3.61  0.  0.
363  3.62  0.  0.
364  3.63  0.  0.
365  3.64  0.  0.
366  3.65  0.  0.
367  3.66  0.  0.
368  3.67  0.  0.
369  3.68  0.  0.
370  3.69  0.  0.
371  3.70  0.  0.
372  3.71  0.  0.
373  3.72  0.  0.
374  3.73  0.  0.
375  3.74  0.  0.
376  3.75  0.  0.
377  3.76  0.  0.
378  3.77  0.  0.
379  3.78  0.  0.
380  3.79  0.  0.
381  3.80  0.  0.
382  3.81  0.  0.
383  3.82  0.  0.
384  3.83  0.  0.
385  3.84  0.  0.
386  3.85  0.  0.
387  3.86  0.  0.
388  3.87  0.  0.
389  3.88  0.  0.
390  3.89  0.  0.
391  3.90  0.  0.
392  3.91  0.  0.
393  3.92  0.  0.
394  3.93  0.  0.
395  3.94  0.  0.
396  3.95  0.  0.
397  3.96  0.  0.
398  3.97  0.  0.
399  3.98  0.  0.
400  3.99  0.  0.
401  4.00  0.  0.
402  4.01  0.  0.
403  4.02  0.  0.
404  4.03  0.  0.
405  4.04  0.  0.
406  4.05  0.  0.
407  4.06  0.  0.
408  4.07  0.  0.
409  4.08  0.  0.
410  4.09  0.  0.
411  4.10  0.  0.
412  4.11  0.  0.
413  4.12  0.  0.
414  4.13  0.  0.
415  4.14  0.  0.
416  4.15  0.  0.
417  4.16  0.  0.
418  4.17  0.  0.
419  4.18  0.  0.
420  4.19  0.  0.
421  4.20  0.  0.
422  4.21  0.  0.
423  4.22  0.  0.
424  4.23  0.  0.
425  4.24  0.  0.
426  4.25  0.  0.
427  4.26  0.  0.
428  4.27  0.  0.
429  4.28  0.  0.
430  4.29  0.  0.
431  4.30  0.  0.
432  4.31  0.  0.
433  4.32  0.  0.
434  4.33  0.  0.
435  4.34  0.  0.
436  4.35  0.  0.
437  4.36  0.  0.
438  4.37  0.  0.
439  4.38  0.  0.
440  4.39  0.  0.
441  4.40  0.  0.
442  4.41  0.  0.
443  4.42  0.  0.
444  4.43  0.  0.
445  4.44  0.  0.
446  4.45  0.  0.
447  4.46  0.  0.
448  4.47  0.  0.
449  4.48  0.  0.
450  4.49  0.  0.
451  4.50  0.  0.
452  4.51  0.  0.
453  4.52  0.  0.
454  4.53  0.  0.
455  4.54  0.  0.
456  4.55  0.  0.
457  4.56  0.  0.
458  4.57  0.  0.
459  4.58  0.  0.
460  4.59  0.  0.
461  4.60  0.  0.
462  4.61  0.  0.
463  4.62  0.  0.
464  4.63  0.  0.
465  4.64  0.  0.
466  4.65  0.  0.
467  4.66  0.  0.
468  4.67  0.  0.
469  4.68  0.  0.
470  4.69  0.  0.
471  4.70  0.  0.
472  4.71  0.  0.
473  4.72  0.  0.
474  4.73  0.  0.
475  4.74  0.  0.
476  4.75  0.  0.
477  4.76  0.  0.
478  4.77  0.  0.
479  4.78  0.  0.
480  4.79  0.  0.
481  4.80  0.  0.
482  4.81  0.  0.
483  4.82  0.  0.
484  4.83  0.  0.
485  4.84  0.  0.
486  4.85  0.  0.
487  4.86  0.  0.
488  4.87  0.  0.
489  4.88  0.  0.
490  4.89  0.  0.
491  4.90  0.  0.
492  4.91  0.  0.
493  4.92  0.  0.
494  4.93  0.  0.
495  4.94  0.  0.
496  4.95  0.  0.
497  4.96  0.  0.
498  4.97  0.  0.
499  4.98  0.  0.
500  4.99  0.  0.
501  5.00  0.  0.
502  5.01  0.  0.
503  5.02  0.  0.
504  5.03  0.  0.
505  5.04  0.  0.
506  5.05  0.  0.
507  5.06  0.  0.
508  5.07  0.  0.
509  5.08  0.  0.
510  5.09  0.  0.
511  5.10  0.  0.
512  5.11  0.  0.
513  5.12  0.  0.
514  5.13  0.  0.
515  5.14  0.  0.
516  5.15  0.  0.
517  5.16  0.  0.
518  5.17  0.  0.
519  5.18  0.  0.
520  5.19  0.  0.
521  5.20  0.  0.
522  5.21  0.  0.
523  5.22  0.  0.
524  5.23  0.  0.
525  5.24  0.  0.
526  5.25  0.  0.
527  5.26  0.  0.
528  5.27  0.  0.
529  5.28  0.  0.
530  5.29  0.  0.
531  5.30  0.  0.
532  5.31  0.  0.
533  5.32  0.  0.
534  5.33  0.  0.
535  5.34  0.  0.
536  5.35  0.  0.
537  5.36  0.  0.
538  5.37  0.  0.
539  5.38  0.  0.
540  5.39  0.  0.
541  5.40  0.  0.
542  5.41  0.  0.
543  5.42  0.  0.
544  5.43  0.  0.
545  5.44  0.  0.
546  5.45  0.  0.
547  5.46  0.  0.
548  5.47  0.  0.
549  5.48  0.  0.
550  5.49  0.  0.
551  5.50  0.  0.
552  5.51  0.  0.
553  5.52  0.  0.
554  5.53  0.  0.
555  5.54  0.  0.
556  5.55  0.  0.
557  5.56  0.  0.
558  5.57  0.  0.
559  5.58  0.  0.
560  5.59  0.  0.
561  5.60  0.  0.
562  5.61  0.  0.
563  5.62  0.  0.
564  5.63  0.  0.
565  5.64  0.  0.
566  5.65  0.  0.
567  5.66  0.  0.
568  5.67  0.  0.
569  5.68  0.  0.
570  5.69  0.  0.
571  5.70  0.  0.
572  5.71  0.  0.
573  5.72  0.  0.
574  5.73  0.  0.
575  5.74  0.  0.
576  5.75  0.  0.
577  5.76  0.  0.
578  5.77  0.  0.
579  5.78  0.  0.
580  5.79  0.  0.
581  5.80  0.  0.
582  5.81  0.  0.
583  5.82  0.  0.
584  5.83  0.  0.
585  5.84  0.  0.
586  5.85  0.  0.
587  5.86  0.  0.
588  5.87  0.  0.
589  5.88  0.  0.
590  5.89  0.  0.
591  5.90  0.  0.
592  5.91  0.  0.
593  5.92  0.  0.
594  5.93  0.  0.
595  5.94  0.  0.
596  5.95  0.  0.
597  5.96  0.  0.
598  5.97  0.  0.
599  5.98  0.  0.
600  5.99  0.  0.
1                         1.0554328446295E+01  6.8469389214287E-01 -2.0151054491614E-01
1  0.0000000000000E+00 -8.7479881671904E-10  1.6410852468618E-09 -1.9286004473984E-08
2  1.0000000000000E-02  1.5592041858667E-03 -7.1780770063778E-04  1.1407927057817E-03
3  2.0000000000000E-02  6.2318340951462E-03 -2.8681851634264E-03  4.5682016575060E-03
4  3.0000000000000E-02  1.4002936848744E-02 -6.4419700824992E-03  1.0296912305062E-02
5  4.0000000000000E-02  2.4847575078254E-02 -1.1423808331096E-02  1.8350055542376E-02
6  5.0000000000000E-02  3.8730804960860E-02 -1.7792032050894E-02  2.8757232080693E-02
7  6.0000000000000E-02  5.5607649198752E-02 -2.5518495919007E-02  4.1551828805200E-02
8  7.0000000000000E-02  7.5423068560420E-02 -3.4568378331525E-02  5.6767706854070E-02
9  8.0000000000000E-02  9.8111936475951E-02 -4.4899955883596E-02  7.4435360445007E-02
10  9.0000000000000E-02  1.2359902193906E-01 -5.6464360962045E-02  9.4577662252408E-02
11  1.0000000000000E-01  1.5179898659526E-01 -6.9205333462765E-02  1.1720532497723E-01
12  1.1000000000000E-01  1.8261640237115E-01 -8.3058978570543E-02  1.4231221928910E-01
13  1.2000000000000E-01  2.1594579631156E-01 -9.7953543169977E-02  1.6987069527301E-01
14  1.3000000000000E-01  2.5167172942800E-01 -1.1380922377480E-01  1.9982705768652E-01
15  1.4000000000000E-01  2.8966891632050E-01 -1.3053801885988E-01  2.3209734461957E-01
16  1.5000000000000E-01  3.2980239211055E-01 -1.4804363815147E-01  2.6656355453955E-01
17  1.6000000000000E-01  3.7192773282138E-01 -1.6622148078264E-01  3.0307045828016E-01
18  1.7000000000000E-01  4.1589133476750E-01 -1.8495869326343E-01  3.4142312047210E-01
19  1.8000000000000E-01  4.6153075778052E-01 -2.0413431696853E-01  3.8138523948075E-01
20  1.9000000000000E-01  5.0867513621606E-01 -2.2361953333546E-01  4.2267839646248E-01
21  2.0000000000000E-01  5.5714566067630E-01 -2.4327801322411E-01  4.6498228309885E-01
22  2.1000000000000E-01  6.0675613226369E-01 -2.6296637495330E-01  5.0793595441069E-01
23  2.2000000000000E-01  6.5731358997846E-01 -2.8253475344148E-01  5.5114012833528E-01
24  2.3000000000000E-01  7.0861901061029E-01 -3.0182748068500E-01  5.9416052805746E-01
25  2.4000000000000E-01  7.6046807918055E-01 -3.2068387555411E-01  6.3653223703707E-01
26  2.5000000000000E-01  8.1265202669308E-01 -3.3893913862652E-01  6.7776501089770E-01
27  2.6000000000000E-01  8.6495853067723E-01 -3.5642534555899E-01  7.1734946546718E-01
28  2.7000000000000E-01  9.1717267278379E-01 -3.7297253036986E-01  7.5476403689986E-01
29  2.8000000000000E-01  9.6907794654995E-01 -3.8840984801709E-01  7.8948258854782E-01
30  2.9000000000000E-01  1.0204573074080E+00 -4.0256680385130E-01  8.2098252062064E-01
31  3.0000000000000E-01  1.0710942560962E+00 -4.1527453594372E-01  8.4875322316220E-01
32  3.1000000000000E-01  1.1207739458626E+00 -4.2636713496880E-01  8.7230470088788E-01
33  3.2000000000000E-01  1.1692843032431E+00 -4.3568298529247E-01  8.9117619029853E-01
34  3.3000000000000E-01  1.2164171517685E+00 -4.4306611020232E-01  9.0494458546062E-01
35  3.4000000000000E-01  1.2619693277074E+00 -4.4836750383173E-01  9.1323248906257E-01
36  3.5000000000000E-01  1.3057437769014E+00 -4.5144643228682E-01  9.1571570987362E-01
37  3.6000000000000E-01  1.3475506218858E+00 -4.5217168678318E-01  9.1213003649057E-01
38  3.7000000000000E-01  1.3872081888189E+00 -4.5042277223340E-01  9.0227713010432E-01
39  3.8000000000000E-01  1.4245439842527E+00 -4.4609101568293E-01  8.8602939570017E-01
40  3.9000000000000E-01  1.4593956124574E+00 -4.3908058024940E-01  8.6333371127574E-01
41  4.0000000000000E-01  1.4916116248518E+00 -4.2930937175197E-01  8.3421391788670E-01
42  4.1000000000000E-01  1.5210522940616E+00 -4.1670982698797E-01  7.9877199910239E-01
43  4.2000000000000E-01  1.5475903062199E+00 -4.0122957458608E-01  7.5718790619584E-01
44  4.3000000000000E-01  1.5711113663055E+00 -3.8283196149260E-01  7.0971801447855E-01
45  4.4000000000000E-01  1.5915147125611E+00 -3.6149644038490E-01  6.5669222595095E-01
46  4.5000000000000E-01  1.6087135373218E+00 -3.3721881560251E-01  5.9850976318749E-01
47  4.6000000000000E-01  1.6226353128819E+00 -3.1001134749103E-01  5.3563372841118E-01
48  4.7000000000000E-01  1.6332220223095E+00 -2.7990271731615E-01  4.6858452935097E-01
49  4.8000000000000E-01  1.6404302963562E+00 -2.4693785707451E-01  3.9793229905304E-01
50  4.9000000000000E-01  1.6442314587806E+00 -2.1117765055678E-01  3.2428845971281E-01
51  5.0000000000000E-01  1.6446114834730E+00 -1.7269851386330E-01  2.4829660024687E-01
52  5.1000000000000E-01  1.6415708677372E+00 -1.3159186519225E-01  1.7062285323671E-01
53  5.2000000000000E-01  1.6351244269041E+00 -8.7963495082557E-02  9.1945968640646E-02
54  5.3000000000000E-01  1.6253010161341E+00 -4.1932849369684E-02  1.2947288970105E-02
55  5.4000000000000E-01  1.6121431857838E+00  6.3677621194750E-03 -6.5699166754317E-02
56  5.5000000000000E-01  1.5957067770585E+00  5.6794017657711E-02 -1.4333630511621E-01
57  5.6000000000000E-01  1.5760604648604E+00  1.0919048289688E-01 -2.1933304828075E-01
58  5.7000000000000E-01  1.5532852547474E+00  1.6339154393901E-01 -2.9309272523379E-01
59  5.8000000000000E-01  1.5274739407711E+00  2.1922236131477E-01 -3.6406059371245E-01
60  5.9000000000000E-01  1.4987305306583E+00  2.7649983279260E-01 -4.3173034237585E-01
61  6.0000000000000E-01  1.4671696443533E+00  3.3503355401603E-01 -4.9564944653400E-01
62  6.1000000000000E-01  1.4329158913785E+00  3.9462676727782E-01 -5.5542327763635E-01
63  6.2000000000000E-01  1.3961032317976E+00  4.5507729024656E-01 -6.1071789611083E-01
64  6.3000000000000E-01  1.3568743248243E+00  5.1617841812154E-01 -6.6126148835984E-01
65  6.4000000000000E-01  1.3153798683165E+00  5.7771979445741E-01 -7.0684444103075E-01
66  6.5000000000000E-01  1.2717779315728E+00  6.3948824772004E-01 -7.4731807832307E-01
67  6.6000000000000E-01  1.2262332830186E+00  7.0126859245744E-01 -7.8259212029013E-01
68  6.7000000000000E-01  1.1789167135720E+00  7.6284439574172E-01 -8.1263095106150E-01
69  6.8000000000000E-01  1.1300043557354E+00  8.2399871120750E-01 -8.3744881489533E-01
70  6.9000000000000E-01  1.0796769977913E+00  8.8451478453230E-01 -8.5710408424507E-01
71  7.0000000000000E-01  1.0281193919179E+00  9.4417673552540E-01 -8.7169276693157E-01
72  7.1000000000000E-01  9.7551955460017E-01  1.0027702230774E+00 -8.8134143845713E-01
73  7.2000000000000E-01  9.2206805740768E-01  1.0600831000342E+00 -8.8619979997826E-01
74  7.3000000000000E-01  8.6795730606359E-01  1.1159060655722E+00 -8.8643307206948E-01
75  7.4000000000000E-01  8.1338080574006E-01  1.1700333228427E+00 -8.8221443887059E-01
76  7.5000000000000E-01  7.5853241069387E-01  1.2222632495130E+00 -8.7371775634368E-01
77  7.6000000000000E-01  7.0360555669939E-01  1.2723990883581E+00 -8.6111073213218E-01
78  7.7000000000000E-01  6.4879247524014E-01  1.3202496642487E+00 -8.4454877299830E-01
79  7.8000000000000E-01  5.9428338907426E-01  1.3656301327700E+00 -8.2416967922913E-01
80  7.9000000000000E-01  5.4026568957935E-01  1.4083627642898E+00 -8.0008934408860E-01
81  8.0000000000000E-01  4.8692309718882E-01  1.4482777656387E+00 -7.7239859080705E-01
82  8.1000000000000E-01  4.3443480723257E-01  1.4852141396777E+00 -7.4116125031282E-01
83  8.2000000000000E-01  3.8297462456307E-01  1.5190205809800E+00 -7.0641355058525E-01
84  8.3000000000000E-01  3.3271009145417E-01  1.5495564036897E+00 -6.6816485389564E-01
85  8.4000000000000E-01  2.8380161437308E-01  1.5766924953892E+00 -6.2639974211434E-01
86  8.5000000000000E-01  2.3640159631335E-01  1.6003122885893E+00 -5.8108141356464E-01
87  8.6000000000000E-01  1.9065358240391E-01  1.6203127392966E+00 -5.3215631848381E-01
88  8.7000000000000E-01  1.4669142744469E-01  1.6366053000845E+00 -4.7955992491027E-01
89  8.8000000000000E-01  1.0463849482859E-01  1.6491168732578E+00 -4.2322347363322E-01
90  8.9000000000000E-01  6.4606896965179E-02  1.6577907281127E+00 -3.6308155056892E-01
91  9.0000000000000E-01  2.6696787793388E-02  1.6625873650134E+00 -2.9908027835173E-01
92  9.1000000000000E-01 -9.0042817637763E-03  1.6634853080770E+00 -2.3118590677247E-01
93  9.2000000000000E-01 -4.2421934509750E-02  1.6604818077280E+00 -1.5939356457262E-01
94  9.3000000000000E-01 -7.3495453159177E-02  1.6535934342789E+00 -8.3735923531083E-02
95  9.4000000000000E-01 -1.0217817175811E-01  1.6428565440467E+00 -4.2915201406932E-03
96  9.5000000000000E-01 -1.2843776280739E-01  1.6283276003266E+00  7.8807519281620E-02
97  9.6000000000000E-01 -1.5225641151531E-01  1.6100833328376E+00  1.6536859736248E-01
98  9.7000000000000E-01 -1.7363086980822E-01  1.5882207209924E+00  2.5513284253424E-01
99  9.8000000000000E-01 -1.9257238415841E-01  1.5628567885400E+00  3.4777059903839E-01
100  9.9000000000000E-01 -2.0910649292756E-01  1.5341281997163E+00  4.4287840023335E-01
101  1.0000000000000E+00 -2.2327269074622E-01  1.5021906500072E+00  5.3997758521251E-01
102  1.0100000000000E+00 -2.3512395942064E-01  1.4672180479020E+00  6.3851468394866E-01
103  1.0200000000000E+00 -2.4472616694414E-01  1.4294014875460E+00  7.3786365748797E-01
104  1.0300000000000E+00 -2.5215733835030E-01  1.3889480159136E+00  8.3733003792973E-01
105  1.0400000000000E+00 -2.5750680433602E-01  1.3460792019465E+00  9.3615696897379E-01
106  1.0500000000000E+00 -2.6087423575752E-01  1.3010295189444E+00  1.0335331027411E+00
107  1.0600000000000E+00 -2.6236857421725E-01  1.2540445552902E+00  1.1286022632965E+00
108  1.0700000000000E+00 -2.6210687096611E-01  1.2053790722338E+00  1.2204747429650E+00
109  1.0800000000000E+00 -2.6021304819446E-01  1.1552949308759E+00  1.3082400552057E+00
110  1.0900000000000E+00 -2.5681659844139E-01  1.1040589136034E+00  1.3909809283442E+00
111  1.1000000000000E+00 -2.5205123926086E-01  1.0519404679366E+00  1.4677882891078E+00
112  1.1100000000000E+00 -2.4605354142189E-01  9.9920940301042E-01  1.5377769542472E+00
113  1.1200000000000E+00 -2.3896154974414E-01  9.4613357063608E-01  1.6001017236281E+00
114  1.1300000000000E+00 -2.3091341616156E-01  8.9297656403969E-01  1.6539735495155E+00
115  1.1400000000000E+00 -2.2204606474031E-01  8.3999546790140E-01  1.6986754450258E+00
116  1.1500000000000E+00 -2.1249390814203E-01  7.8743869318954E-01  1.7335777902157E+00
117  1.1600000000000E+00 -2.0238763441417E-01  7.3554392948640E-01  1.7581526972754E+00
118  1.1700000000000E+00 -1.9185308200539E-01  6.8453624602603E-01  1.7719871068725E+00
119  1.1800000000000E+00 -1.8101021956203E-01  6.3462637053150E-01  1.7747943056986E+00
120  1.1900000000000E+00 -1.6997224536709E-01  5.8600917215203E-01  1.7664235805840E+00
121  1.2000000000000E+00 -1.5884481928412E-01  5.3886237144018E-01  1.7468677564008E+00
122  1.2100000000000E+00 -1.4772543776265E-01  4.9334549636499E-01  1.7162684033285E+00
123  1.2200000000000E+00 -1.3670295993351E-01  4.4959909897457E-01  1.6749185424246E+00
124  1.2300000000000E+00 -1.2585729007236E-01  4.0774424249881E-01  1.6232627267151E+00
125  1.2400000000000E+00 -1.1525921881765E-01  3.6788226355859E-01  1.5618944266918E+00
126  1.2500000000000E+00 -1.0497042254947E-01  3.3009480881883E-01  1.4915507030996E+00
127  1.2600000000000E+00 -9.5043617293908E-02  2.9444413993183E-01  1.4131042056388E+00
128  1.2700000000000E+00 -8.5522860520076E-02  2.6097369515885E-01  1.3275525916501E+00
129  1.2800000000000E+00 -7.6443991268697E-02  2.2970889067423E-01  1.2360055134133E+00
130  1.2900000000000E+00 -6.7835196254211E-02  2.0065813936520E-01  1.1396693751309E+00
131  1.3000000000000E+00 -5.9717686995775E-02  1.7381406008442E-01  1.0398301094090E+00
132  1.3100000000000E+00 -5.2106470688661E-02  1.4915484585738E-01  9.3783426739448E-01
133  1.3200000000000E+00 -4.5011195475291E-02  1.2664575558290E-01  8.3506875568426E-01
134  1.3300000000000E+00 -3.8437049077633E-02  1.0624069041588E-01  7.3293958543233E-01
135  1.3400000000000E+00 -3.2385688429342E-02  8.7883813327873E-02  6.3285002431876E-01