Bk    ONCVPSP-4.0.1  r_core=   1.15197   1.15197   1.15197   1.35390
97.0000     37.0000      220712    zatom,zion,pspd
8      11   3     4   600     0    pspcod,pspxc,lmax,lloc,mmax,r2well
5.99000000  5.00000000  0.00000000    rchrg fchrg qchrg
3     2     2     2     0    nproj
1     1           extension_switch
0                         2.7180932511299E+01  3.1759561533458E+00 -1.1339647954899E+00
1  0.0000000000000E+00 -9.6584469089223E-08  3.2482725881300E-07  1.3740150545116E-08
2  1.0000000000000E-02  1.6049661573032E-01 -7.9680657338257E-02  2.7865956151455E-02
3  2.0000000000000E-02  3.1969404255492E-01 -1.5713525772367E-01  5.5687429958954E-02
4  3.0000000000000E-02  4.7631599288679E-01 -2.3020411697923E-01  8.3417751138547E-02
5  4.0000000000000E-02  6.2913126744972E-01 -2.9685792959841E-01  1.1100598214107E-01
6  5.0000000000000E-02  7.7697454027780E-01 -3.5525713048710E-01  1.3839505233927E-01
7  6.0000000000000E-02  9.1876510634760E-01 -4.0380451106076E-01  1.6552020330534E-01
8  7.0000000000000E-02  1.0535230323721E+00 -4.4118924340612E-01  1.9230783206140E-01
9  8.0000000000000E-02  1.1803822478696E+00 -4.6642079104441E-01  2.1867480544564E-01
10  9.0000000000000E-02  1.2986002271580E+00 -4.7885156681841E-01  2.4452830237810E-01
11  1.0000000000000E-01  1.4075640390326E+00 -4.7818762291039E-01  2.6976622234231E-01
12  1.1000000000000E-01  1.5067926746973E+00 -4.6448710868960E-01  2.9427817839807E-01
13  1.2000000000000E-01  1.5959357008741E+00 -4.3814669170053E-01  3.1794707213262E-01
14  1.3000000000000E-01  1.6747684186573E+00 -3.9987658800454E-01  3.4065122680159E-01
15  1.4000000000000E-01  1.7431838344612E+00 -3.5066527299503E-01  3.6226703417715E-01
16  1.5000000000000E-01  1.8011818624931E+00 -2.9173532644226E-01  3.8267205097059E-01
17  1.6000000000000E-01  1.8488562742230E+00 -2.2449219124186E-01  4.0174846276484E-01
18  1.7000000000000E-01  1.8863799856499E+00 -1.5046788170403E-01  4.1938681776489E-01
19  1.8000000000000E-01  1.9139893249003E+00 -7.1261854457351E-02  4.3548991987165E-01
20  1.9000000000000E-01  1.9319679489075E+00  1.1518653549754E-02  4.4997676104722E-01
21  2.0000000000000E-01  1.9406310776442E+00  9.6316513278673E-02  4.6278636700845E-01
22  2.1000000000000E-01  1.9403106877131E+00  1.8167859836656E-01  4.7388142819920E-01
23  2.2000000000000E-01  1.9313422551454E+00  2.6630363937292E-01  4.8325158986929E-01
24  2.3000000000000E-01  1.9140535621337E+00  3.4908224193709E-01  4.9091628093183E-01
25  2.4000000000000E-01  1.8887559871248E+00  4.2912759375371E-01  4.9692697096011E-01
26  2.5000000000000E-01  1.8557385860446E+00  5.0579576220446E-01  5.0136875798206E-01
27  2.6000000000000E-01  1.8152651488467E+00  5.7869490316873E-01  5.0436120628266E-01
28  2.7000000000000E-01  1.7675742849908E+00  6.4768314564509E-01  5.0605837277825E-01
29  2.8000000000000E-01  1.7128824590525E+00  7.1285536904599E-01  5.0664798213615E-01
30  2.9000000000000E-01  1.6513897687095E+00  7.7451953277598E-01  5.0634973405724E-01
31  3.0000000000000E-01  1.5832881369680E+00  8.3316363372820E-01  5.0541275034237E-01
32  3.1000000000000E-01  1.5087714834896E+00  8.8941474044402E-01  5.0411219380920E-01
33  3.2000000000000E-01  1.4280473505251E+00  9.4399186836891E-01  5.0274511508671E-01
34  3.3000000000000E-01  1.3413493908506E+00  9.9765470661474E-01  5.0162560606405E-01
35  3.4000000000000E-01  1.2489500809759E+00  1.0511503733613E+00  5.0107935961636E-01
36  3.5000000000000E-01  1.1511730045825E+00  1.1051604580095E+00  5.0143775352557E-01
37  3.6000000000000E-01  1.0484040594356E+00  1.1602506003238E+00  5.0303159168722E-01
38  3.7000000000000E-01  9.4110097566364E-01  1.2168247603912E+00  5.0618464725875E-01
39  3.8000000000000E-01  8.2980059302578E-01  1.2750861520640E+00  5.1120715998148E-01
40  3.9000000000000E-01  7.1512342731749E-01  1.3350065537250E+00  5.1838944323486E-01
41  4.0000000000000E-01  5.9777515823171E-01  1.3963053838101E+00  5.2799575532454E-01
42  4.1000000000000E-01  4.7854478884812E-01  1.4584395472771E+00  5.4025858406188E-01
43  4.2000000000000E-01  3.5829935590003E-01  1.5206046379637E+00  5.5537348399561E-01
44  4.3000000000000E-01  2.3797520505915E-01  1.5817476369204E+00  5.7349459197039E-01
45  4.4000000000000E-01  1.1856598142489E-01  1.6405907956366E+00  5.9473092940098E-01
46  4.5000000000000E-01  1.1076169188285E-03  1.6956659530996E+00  6.1914357926685E-01
47  4.6000000000000E-01 -1.1333928176211E-01  1.7453581238835E+00  6.4674380295307E-01
48  4.7000000000000E-01 -2.2370913333876E-01  1.7879568268867E+00  6.7749213737054E-01
49  4.8000000000000E-01 -3.2895256986278E-01  1.8217133150628E+00  7.1129848702551E-01
50  4.9000000000000E-01 -4.2805844477520E-01  1.8449016274013E+00  7.4802319965407E-01
51  5.0000000000000E-01 -5.2007595099178E-01  1.8558812245910E+00  7.8747908848388E-01
52  5.1000000000000E-01 -6.0413612261522E-01  1.8531588952429E+00  8.2943433991103E-01
53  5.2000000000000E-01 -6.7947200449527E-01  1.8354476329004E+00  8.7361622312663E-01
54  5.3000000000000E-01 -7.4543681097798E-01  1.8017202845620E+00  9.1971549867163E-01
55  5.4000000000000E-01 -8.0151945737550E-01  1.7512559549287E+00  9.6739140663431E-01
56  5.5000000000000E-01 -8.4735693255637E-01  1.6836774097137E+00  1.0162771027203E+00
57  5.6000000000000E-01 -8.8274308534533E-01  1.5989780458727E+00  1.0659854020854E+00
58  5.7000000000000E-01 -9.0763351713908E-01  1.4975373738042E+00  1.1161146868587E+00
59  5.8000000000000E-01 -9.2214640372837E-01  1.3801243717568E+00  1.1662548337885E+00
60  5.9000000000000E-01 -9.2655920581397E-01  1.2478885098171E+00  1.2159930233467E+00
61  6.0000000000000E-01 -9.2130136497225E-01  1.1023386831711E+00  1.2649193007416E+00
62  6.1000000000000E-01 -9.0694321473435E-01  9.4531072500574E-01  1.3126317722462E+00
63  6.2000000000000E-01 -8.8418146007952E-01  7.7892457223392E-01  1.3587413365894E+00
64  6.3000000000000E-01 -8.5382168849826E-01  6.0553251720775E-01  1.4028758702889E+00
65  6.4000000000000E-01 -8.1675846793344E-01  4.2766028258368E-01  1.4446838070323E+00
66  6.5000000000000E-01 -7.7395365816092E-01  2.4794289368716E-01  1.4838370737943E+00
67  6.6000000000000E-01 -7.2641361018026E-01  6.9057484990818E-02  1.5200333694984E+00
68  6.7000000000000E-01 -6.7516595153934E-01 -1.0634474041965E-01  1.5529977948789E+00
69  6.8000000000000E-01 -6.2123665376793E-01 -2.7570517919671E-01  1.5824838639533E+00
70  6.9000000000000E-01 -5.6562805178936E-01 -4.3662098501677E-01  1.6082739474083E+00
71  7.0000000000000E-01 -5.0929843578486E-01 -5.8690273250760E-01  1.6301792155288E+00
72  7.1000000000000E-01 -4.5314376585630E-01 -7.2462483108642E-01  1.6480391624328E+00
73  7.2000000000000E-01 -3.9798197205689E-01 -8.4816721674961E-01  1.6617208038283E+00
74  7.3000000000000E-01 -3.4454020066371E-01 -9.5624718189941E-01  1.6711176468996E+00
75  7.4000000000000E-01 -2.9344525612016E-01 -1.0479405691244E+00  1.6761485330466E+00
76  7.5000000000000E-01 -2.4521737132140E-01 -1.1226919400050E+00  1.6767564519722E+00
77  7.6000000000000E-01 -2.0026732140711E-01 -1.1803137195354E+00  1.6729074191405E+00
78  7.7000000000000E-01 -1.5889678239843E-01 -1.2209746959648E+00  1.6645894981666E+00
79  7.8000000000000E-01 -1.2130173003612E-01 -1.2451786108758E+00  1.6518120356518E+00
80  7.9000000000000E-01 -8.7578579792298E-02 -1.2537338924910E+00  1.6346051589043E+00
81  8.0000000000000E-01 -5.7732689380014E-02 -1.2477158558167E+00  1.6130195675420E+00
82  8.1000000000000E-01 -3.1688782645581E-02 -1.2284229076558E+00  1.5871266289466E+00
83  8.2000000000000E-01 -9.3028101902399E-03 -1.1973284466509E+00  1.5570187657601E+00
84  8.3000000000000E-01  9.6252616908608E-03 -1.1560302348481E+00  1.5228101019888E+00
85  8.4000000000000E-01  2.5338246084184E-02 -1.1061990369876E+00  1.4846373137072E+00
86  8.5000000000000E-01  3.8108611698898E-02 -1.0495282786323E+00  1.4426606117410E+00
87  8.6000000000000E-01  4.8225904606512E-02 -9.8768636855307E-01  1.3970647678944E+00
88  8.7000000000000E-01  5.5985131456585E-02 -9.2227317085243E-01  1.3480600840572E+00
89  8.8000000000000E-01  6.1676458864311E-02 -8.5478190625195E-01  1.2958831955657E+00
90  8.9000000000000E-01  6.5576512434814E-02 -7.8656751918992E-01  1.2407975970357E+00
91  9.0000000000000E-01  6.7941480904932E-02 -7.1882227813627E-01  1.1830937809791E+00
92  9.1000000000000E-01  6.9002149388821E-02 -6.5255909135380E-01  1.1230888870878E+00
93  9.2000000000000E-01  6.8960903826500E-02 -5.8860272947766E-01  1.0611257732387E+00
94  9.3000000000000E-01  6.7990669327251E-02 -5.2758885934853E-01  9.9757143795410E-01
95  9.4000000000000E-01  6.6235670609562E-02 -4.6997051882908E-01  9.3281474801501E-01
96  9.5000000000000E-01  6.3813835086293E-02 -4.1603140661119E-01  8.6726345376137E-01
97  9.6000000000000E-01  6.0820599612361E-02 -3.6590512907540E-01  8.0134050780202E-01
98  9.7000000000000E-01  5.7333831114307E-02 -3.1959934081525E-01  7.3547973968793E-01
99  9.8000000000000E-01  5.3419529081345E-02 -2.7702353666982E-01  6.7012097884337E-01
100  9.9000000000000E-01  4.9137943390325E-02 -2.3801909922371E-01  6.0570475977877E-01
101  1.0000000000000E+00  4.4549712538026E-02 -2.0239007229224E-01  5.4266678643659E-01
102  1.0100000000000E+00  3.9721602852424E-02 -1.6993301165126E-01  4.8143237543255E-01
103  1.0200000000000E+00  3.4731405804183E-02 -1.4046415075924E-01  4.2241114004089E-01
104  1.0300000000000E+00  2.9671524865556E-02 -1.1384200171536E-01  3.6599221699552E-01
105  1.0400000000000E+00  2.4650751851835E-02 -8.9983379206275E-02  3.1254037564085E-01
106  1.0500000000000E+00  1.9793691350499E-02 -6.8870675446616E-02  2.6239338286761E-01
107  1.0600000000000E+00  1.5237236812180E-02 -5.0548015188075E-02  2.1586102672093E-01
108  1.0700000000000E+00  1.1123429252604E-02 -3.5103669525841E-02  1.7322622598158E-01
109  1.0800000000000E+00  7.5878780490790E-03 -2.2635628705139E-02  1.3474862771565E-01
110  1.0900000000000E+00  4.7433792403027E-03 -1.3198484326928E-02  1.0067154760194E-01
111  1.1000000000000E+00  2.6286324156806E-03 -6.6438000386571E-03  7.1209492656658E-02
112  1.1100000000000E+00  1.1495299364377E-03 -2.4292519356648E-03  4.6536473565966E-02
113  1.1200000000000E+00  2.8123942290919E-04 -2.1066543036715E-04  2.6948059524667E-02
114  1.1300000000000E+00 -7.5552488338361E-05  5.0776235354459E-04  1.2649520458661E-02
115  1.1400000000000E+00 -9.1026254276081E-05  3.4014099444986E-04  3.7063543215057E-03
116  1.1500000000000E+00 -7.2563534405948E-06  2.3409020399495E-05  1.5472625567078E-04
117  1.1600000000000E+00 -4.7251500160147E-07  1.5437323292514E-06  1.0561212403265E-05
118  1.1700000000000E+00  1.0594715879757E-07 -3.6175941359626E-07 -2.9808855557260E-06
119  1.18  0.  0.  0.
120  1.19  0.  0.  0.
121  1.20  0.  0.  0.
122  1.21  0.  0.  0.
123  1.22  0.  0.  0.
124  1.23  0.  0.  0.
125  1.24  0.  0.  0.
126  1.25  0.  0.  0.
127  1.26  0.  0.  0.
128  1.27  0.  0.  0.
129  1.28  0.  0.  0.
130  1.29  0.  0.  0.
131  1.30  0.  0.  0.
132  1.31  0.  0.  0.
133  1.32  0.  0.  0.
134  1.33  0.  0.  0.
135  1.34  0.  0.  0.
136  1.35  0.  0.  0.
137  1.36  0.  0.  0.
138  1.37  0.  0.  0.
139  1.38  0.  0.  0.
140  1.39  0.  0.  0.
141  1.40  0.  0.  0.
142  1.41  0.  0.  0.
143  1.42  0.  0.  0.
144  1.43  0.  0.  0.
145  1.44  0.  0.  0.
146  1.45  0.  0.  0.
147  1.46  0.  0.  0.
148  1.47  0.  0.  0.
149  1.48  0.  0.  0.
150  1.49  0.  0.  0.
151  1.50  0.  0.  0.
152  1.51  0.  0.  0.
153  1.52  0.  0.  0.
154  1.53  0.  0.  0.
155  1.54  0.  0.  0.
156  1.55  0.  0.  0.
157  1.56  0.  0.  0.
158  1.57  0.  0.  0.
159  1.58  0.  0.  0.
160  1.59  0.  0.  0.
161  1.60  0.  0.  0.
162  1.61  0.  0.  0.
163  1.62  0.  0.  0.
164  1.63  0.  0.  0.
165  1.64  0.  0.  0.
166  1.65  0.  0.  0.
167  1.66  0.  0.  0.
168  1.67  0.  0.  0.
169  1.68  0.  0.  0.
170  1.69  0.  0.  0.
171  1.70  0.  0.  0.
172  1.71  0.  0.  0.
173  1.72  0.  0.  0.
174  1.73  0.  0.  0.
175  1.74  0.  0.  0.
176  1.75  0.  0.  0.
177  1.76  0.  0.  0.
178  1.77  0.  0.  0.
179  1.78  0.  0.  0.
180  1.79  0.  0.  0.
181  1.80  0.  0.  0.
182  1.81  0.  0.  0.
183  1.82  0.  0.  0.
184  1.83  0.  0.  0.
185  1.84  0.  0.  0.
186  1.85  0.  0.  0.
187  1.86  0.  0.  0.
188  1.87  0.  0.  0.
189  1.88  0.  0.  0.
190  1.89  0.  0.  0.
191  1.90  0.  0.  0.
192  1.91  0.  0.  0.
193  1.92  0.  0.  0.
194  1.93  0.  0.  0.
195  1.94  0.  0.  0.
196  1.95  0.  0.  0.
197  1.96  0.  0.  0.
198  1.97  0.  0.  0.
199  1.98  0.  0.  0.
200  1.99  0.  0.  0.
201  2.00  0.  0.  0.
202  2.01  0.  0.  0.
203  2.02  0.  0.  0.
204  2.03  0.  0.  0.
205  2.04  0.  0.  0.
206  2.05  0.  0.  0.
207  2.06  0.  0.  0.
208  2.07  0.  0.  0.
209  2.08  0.  0.  0.
210  2.09  0.  0.  0.
211  2.10  0.  0.  0.
212  2.11  0.  0.  0.
213  2.12  0.  0.  0.
214  2.13  0.  0.  0.
215  2.14  0.  0.  0.
216  2.15  0.  0.  0.
217  2.16  0.  0.  0.
218  2.17  0.  0.  0.
219  2.18  0.  0.  0.
220  2.19  0.  0.  0.
221  2.20  0.  0.  0.
222  2.21  0.  0.  0.
223  2.22  0.  0.  0.
224  2.23  0.  0.  0.
225  2.24  0.  0.  0.
226  2.25  0.  0.  0.
227  2.26  0.  0.  0.
228  2.27  0.  0.  0.
229  2.28  0.  0.  0.
230  2.29  0.  0.  0.
231  2.30  0.  0.  0.
232  2.31  0.  0.  0.
233  2.32  0.  0.  0.
234  2.33  0.  0.  0.
235  2.34  0.  0.  0.
236  2.35  0.  0.  0.
237  2.36  0.  0.  0.
238  2.37  0.  0.  0.
239  2.38  0.  0.  0.
240  2.39  0.  0.  0.
241  2.40  0.  0.  0.
242  2.41  0.  0.  0.
243  2.42  0.  0.  0.
244  2.43  0.  0.  0.
245  2.44  0.  0.  0.
246  2.45  0.  0.  0.
247  2.46  0.  0.  0.
248  2.47  0.  0.  0.
249  2.48  0.  0.  0.
250  2.49  0.  0.  0.
251  2.50  0.  0.  0.
252  2.51  0.  0.  0.
253  2.52  0.  0.  0.
254  2.53  0.  0.  0.
255  2.54  0.  0.  0.
256  2.55  0.  0.  0.
257  2.56  0.  0.  0.
258  2.57  0.  0.  0.
259  2.58  0.  0.  0.
260  2.59  0.  0.  0.
261  2.60  0.  0.  0.
262  2.61  0.  0.  0.
263  2.62  0.  0.  0.
264  2.63  0.  0.  0.
265  2.64  0.  0.  0.
266  2.65  0.  0.  0.
267  2.66  0.  0.  0.
268  2.67  0.  0.  0.
269  2.68  0.  0.  0.
270  2.69  0.  0.  0.
271  2.70  0.  0.  0.
272  2.71  0.  0.  0.
273  2.72  0.  0.  0.
274  2.73  0.  0.  0.
275  2.74  0.  0.  0.
276  2.75  0.  0.  0.
277  2.76  0.  0.  0.
278  2.77  0.  0.  0.
279  2.78  0.  0.  0.
280  2.79  0.  0.  0.
281  2.80  0.  0.  0.
282  2.81  0.  0.  0.
283  2.82  0.  0.  0.
284  2.83  0.  0.  0.
285  2.84  0.  0.  0.
286  2.85  0.  0.  0.
287  2.86  0.  0.  0.
288  2.87  0.  0.  0.
289  2.88  0.  0.  0.
290  2.89  0.  0.  0.
291  2.90  0.  0.  0.
292  2.91  0.  0.  0.
293  2.92  0.  0.  0.
294  2.93  0.  0.  0.
295  2.94  0.  0.  0.
296  2.95  0.  0.  0.
297  2.96  0.  0.  0.
298  2.97  0.  0.  0.
299  2.98  0.  0.  0.
300  2.99  0.  0.  0.
301  3.00  0.  0.  0.
302  3.01  0.  0.  0.
303  3.02  0.  0.  0.
304  3.03  0.  0.  0.
305  3.04  0.  0.  0.
306  3.05  0.  0.  0.
307  3.06  0.  0.  0.
308  3.07  0.  0.  0.
309  3.08  0.  0.  0.
310  3.09  0.  0.  0.
311  3.10  0.  0.  0.
312  3.11  0.  0.  0.
313  3.12  0.  0.  0.
314  3.13  0.  0.  0.
315  3.14  0.  0.  0.
316  3.15  0.  0.  0.
317  3.16  0.  0.  0.
318  3.17  0.  0.  0.
319  3.18  0.  0.  0.
320  3.19  0.  0.  0.
321  3.20  0.  0.  0.
322  3.21  0.  0.  0.
323  3.22  0.  0.  0.
324  3.23  0.  0.  0.
325  3.24  0.  0.  0.
326  3.25  0.  0.  0.
327  3.26  0.  0.  0.
328  3.27  0.  0.  0.
329  3.28  0.  0.  0.
330  3.29  0.  0.  0.
331  3.30  0.  0.  0.
332  3.31  0.  0.  0.
333  3.32  0.  0.  0.
334  3.33  0.  0.  0.
335  3.34  0.  0.  0.
336  3.35  0.  0.  0.
337  3.36  0.  0.  0.
338  3.37  0.  0.  0.
339  3.38  0.  0.  0.
340  3.39  0.  0.  0.
341  3.40  0.  0.  0.
342  3.41  0.  0.  0.
343  3.42  0.  0.  0.
344  3.43  0.  0.  0.
345  3.44  0.  0.  0.
346  3.45  0.  0.  0.
347  3.46  0.  0.  0.
348  3.47  0.  0.  0.
349  3.48  0.  0.  0.
350  3.49  0.  0.  0.
351  3.50  0.  0.  0.
352  3.51  0.  0.  0.
353  3.52  0.  0.  0.
354  3.53  0.  0.  0.
355  3.54  0.  0.  0.
356  3.55  0.  0.  0.
357  3.56  0.  0.  0.
358  3.57  0.  0.  0.
359  3.58  0.  0.  0.
360  3.59  0.  0.  0.
361  3.60  0.  0.  0.
362  3.61  0.  0.  0.
363  3.62  0.  0.  0.
364  3.63  0.  0.  0.
365  3.64  0.  0.  0.
366  3.65  0.  0.  0.
367  3.66  0.  0.  0.
368  3.67  0.  0.  0.
369  3.68  0.  0.  0.
370  3.69  0.  0.  0.
371  3.70  0.  0.  0.
372  3.71  0.  0.  0.
373  3.72  0.  0.  0.
374  3.73  0.  0.  0.
375  3.74  0.  0.  0.
376  3.75  0.  0.  0.
377  3.76  0.  0.  0.
378  3.77  0.  0.  0.
379  3.78  0.  0.  0.
380  3.79  0.  0.  0.
381  3.80  0.  0.  0.
382  3.81  0.  0.  0.
383  3.82  0.  0.  0.
384  3.83  0.  0.  0.
385  3.84  0.  0.  0.
386  3.85  0.  0.  0.
387  3.86  0.  0.  0.
388  3.87  0.  0.  0.
389  3.88  0.  0.  0.
390  3.89  0.  0.  0.
391  3.90  0.  0.  0.
392  3.91  0.  0.  0.
393  3.92  0.  0.  0.
394  3.93  0.  0.  0.
395  3.94  0.  0.  0.
396  3.95  0.  0.  0.
397  3.96  0.  0.  0.
398  3.97  0.  0.  0.
399  3.98  0.  0.  0.
400  3.99  0.  0.  0.
401  4.00  0.  0.  0.
402  4.01  0.  0.  0.
403  4.02  0.  0.  0.
404  4.03  0.  0.  0.
405  4.04  0.  0.  0.
406  4.05  0.  0.  0.
407  4.06  0.  0.  0.
408  4.07  0.  0.  0.
409  4.08  0.  0.  0.
410  4.09  0.  0.  0.
411  4.10  0.  0.  0.
412  4.11  0.  0.  0.
413  4.12  0.  0.  0.
414  4.13  0.  0.  0.
415  4.14  0.  0.  0.
416  4.15  0.  0.  0.
417  4.16  0.  0.  0.
418  4.17  0.  0.  0.
419  4.18  0.  0.  0.
420  4.19  0.  0.  0.
421  4.20  0.  0.  0.
422  4.21  0.  0.  0.
423  4.22  0.  0.  0.
424  4.23  0.  0.  0.
425  4.24  0.  0.  0.
426  4.25  0.  0.  0.
427  4.26  0.  0.  0.
428  4.27  0.  0.  0.
429  4.28  0.  0.  0.
430  4.29  0.  0.  0.
431  4.30  0.  0.  0.
432  4.31  0.  0.  0.
433  4.32  0.  0.  0.
434  4.33  0.  0.  0.
435  4.34  0.  0.  0.
436  4.35  0.  0.  0.
437  4.36  0.  0.  0.
438  4.37  0.  0.  0.
439  4.38  0.  0.  0.
440  4.39  0.  0.  0.
441  4.40  0.  0.  0.
442  4.41  0.  0.  0.
443  4.42  0.  0.  0.
444  4.43  0.  0.  0.
445  4.44  0.  0.  0.
446  4.45  0.  0.  0.
447  4.46  0.  0.  0.
448  4.47  0.  0.  0.
449  4.48  0.  0.  0.
450  4.49  0.  0.  0.
451  4.50  0.  0.  0.
452  4.51  0.  0.  0.
453  4.52  0.  0.  0.
454  4.53  0.  0.  0.
455  4.54  0.  0.  0.
456  4.55  0.  0.  0.
457  4.56  0.  0.  0.
458  4.57  0.  0.  0.
459  4.58  0.  0.  0.
460  4.59  0.  0.  0.
461  4.60  0.  0.  0.
462  4.61  0.  0.  0.
463  4.62  0.  0.  0.
464  4.63  0.  0.  0.
465  4.64  0.  0.  0.
466  4.65  0.  0.  0.
467  4.66  0.  0.  0.
468  4.67  0.  0.  0.
469  4.68  0.  0.  0.
470  4.69  0.  0.  0.
471  4.70  0.  0.  0.
472  4.71  0.  0.  0.
473  4.72  0.  0.  0.
474  4.73  0.  0.  0.
475  4.74  0.  0.  0.
476  4.75  0.  0.  0.
477  4.76  0.  0.  0.
478  4.77  0.  0.  0.
479  4.78  0.  0.  0.
480  4.79  0.  0.  0.
481  4.80  0.  0.  0.
482  4.81  0.  0.  0.
483  4.82  0.  0.  0.
484  4.83  0.  0.  0.
485  4.84  0.  0.  0.
486  4.85  0.  0.  0.
487  4.86  0.  0.  0.
488  4.87  0.  0.  0.
489  4.88  0.  0.  0.
490  4.89  0.  0.  0.
491  4.90  0.  0.  0.
492  4.91  0.  0.  0.
493  4.92  0.  0.  0.
494  4.93  0.  0.  0.
495  4.94  0.  0.  0.
496  4.95  0.  0.  0.
497  4.96  0.  0.  0.
498  4.97  0.  0.  0.
499  4.98  0.  0.  0.
500  4.99  0.  0.  0.
501  5.00  0.  0.  0.
502  5.01  0.  0.  0.
503  5.02  0.  0.  0.
504  5.03  0.  0.  0.
505  5.04  0.  0.  0.
506  5.05  0.  0.  0.
507  5.06  0.  0.  0.
508  5.07  0.  0.  0.
509  5.08  0.  0.  0.
510  5.09  0.  0.  0.
511  5.10  0.  0.  0.
512  5.11  0.  0.  0.
513  5.12  0.  0.  0.
514  5.13  0.  0.  0.
515  5.14  0.  0.  0.
516  5.15  0.  0.  0.
517  5.16  0.  0.  0.
518  5.17  0.  0.  0.
519  5.18  0.  0.  0.
520  5.19  0.  0.  0.
521  5.20  0.  0.  0.
522  5.21  0.  0.  0.
523  5.22  0.  0.  0.
524  5.23  0.  0.  0.
525  5.24  0.  0.  0.
526  5.25  0.  0.  0.
527  5.26  0.  0.  0.
528  5.27  0.  0.  0.
529  5.28  0.  0.  0.
530  5.29  0.  0.  0.
531  5.30  0.  0.  0.
532  5.31  0.  0.  0.
533  5.32  0.  0.  0.
534  5.33  0.  0.  0.
535  5.34  0.  0.  0.
536  5.35  0.  0.  0.
537  5.36  0.  0.  0.
538  5.37  0.  0.  0.
539  5.38  0.  0.  0.
540  5.39  0.  0.  0.
541  5.40  0.  0.  0.
542  5.41  0.  0.  0.
543  5.42  0.  0.  0.
544  5.43  0.  0.  0.
545  5.44  0.  0.  0.
546  5.45  0.  0.  0.
547  5.46  0.  0.  0.
548  5.47  0.  0.  0.
549  5.48  0.  0.  0.
550  5.49  0.  0.  0.
551  5.50  0.  0.  0.
552  5.51  0.  0.  0.
553  5.52  0.  0.  0.
554  5.53  0.  0.  0.
555  5.54  0.  0.  0.
556  5.55  0.  0.  0.
557  5.56  0.  0.  0.
558  5.57  0.  0.  0.
559  5.58  0.  0.  0.
560  5.59  0.  0.  0.
561  5.60  0.  0.  0.
562  5.61  0.  0.  0.
563  5.62  0.  0.  0.
564  5.63  0.  0.  0.
565  5.64  0.  0.  0.
566  5.65  0.  0.  0.
567  5.66  0.  0.  0.
568  5.67  0.  0.  0.
569  5.68  0.  0.  0.
570  5.69  0.  0.  0.
571  5.70  0.  0.  0.
572  5.71  0.  0.  0.
573  5.72  0.  0.  0.
574  5.73  0.  0.  0.
575  5.74  0.  0.  0.
576  5.75  0.  0.  0.
577  5.76  0.  0.  0.
578  5.77  0.  0.  0.
579  5.78  0.  0.  0.
580  5.79  0.  0.  0.
581  5.80  0.  0.  0.
582  5.81  0.  0.  0.
583  5.82  0.  0.  0.
584  5.83  0.  0.  0.
585  5.84  0.  0.  0.
586  5.85  0.  0.  0.
587  5.86  0.  0.  0.
588  5.87  0.  0.  0.
589  5.88  0.  0.  0.
590  5.89  0.  0.  0.
591  5.90  0.  0.  0.
592  5.91  0.  0.  0.
593  5.92  0.  0.  0.
594  5.93  0.  0.  0.
595  5.94  0.  0.  0.
596  5.95  0.  0.  0.
597  5.96  0.  0.  0.
598  5.97  0.  0.  0.
599  5.98  0.  0.  0.
600  5.99  0.  0.  0.
1                         8.8688305895564E+00 -9.1047708709922E-01
1  0.0000000000000E+00 -1.5838766631582E-08 -4.2018042214001E-08
2  1.0000000000000E-02  4.0926856360090E-03  1.0825410391106E-04
3  2.0000000000000E-02  1.6341922069471E-02  4.4964882316702E-04
4  3.0000000000000E-02  3.6661198284526E-02  1.0733467625504E-03
5  4.0000000000000E-02  6.4906176046530E-02  2.0588667258598E-03
6  5.0000000000000E-02  1.0087450188775E-01  3.5125587421231E-03
7  6.0000000000000E-02  1.4430562552996E-01  5.5628716377167E-03
8  7.0000000000000E-02  1.9488070190522E-01  8.3546062109256E-03
9  8.0000000000000E-02  2.5222266977503E-01  1.2042389083523E-02
10  9.0000000000000E-02  3.1589661146397E-01  1.6783635150064E-02
11  1.0000000000000E-01  3.8541050481099E-01  2.2731288910314E-02
12  1.1000000000000E-01  4.6021647968597E-01  3.0026645940322E-02
13  1.2000000000000E-01  5.3971268711584E-01  3.8792554849926E-02
14  1.3000000000000E-01  6.2324587922884E-01  4.9127287257089E-02
15  1.4000000000000E-01  7.1011478309115E-01  6.1099339005550E-02
16  1.5000000000000E-01  7.9957433152663E-01  7.4743390924458E-02
17  1.6000000000000E-01  8.9084078982350E-01  9.0057613151639E-02
18  1.7000000000000E-01  9.8309778966728E-01  1.0700244505634E-01
19  1.8000000000000E-01  1.0755032516652E+00  1.2550092504840E-01
20  1.9000000000000E-01  1.1671971465311E+00  1.4544058323209E-01
21  2.0000000000000E-01  1.2573100135334E+00  1.6667684729195E-01
22  2.1000000000000E-01  1.3449721243663E+00  1.8903785059114E-01
23  2.2000000000000E-01  1.4293231523529E+00  2.1233047360745E-01
24  2.3000000000000E-01  1.5095221819521E+00  2.3634739780126E-01
25  2.4000000000000E-01  1.5847578729300E+00  2.6087490688349E-01
26  2.5000000000000E-01  1.6542585781582E+00  2.8570113602742E-01
27  2.6000000000000E-01  1.7173022045065E+00  3.1062444629951E-01
28  2.7000000000000E-01  1.7732256032236E+00  3.3546159051429E-01
29  2.8000000000000E-01  1.8214332798157E+00  3.6005533844181E-01
30  2.9000000000000E-01  1.8614052237779E+00  3.8428124392607E-01
31  3.0000000000000E-01  1.8927036754185E+00  4.0805326363752E-01
32  3.1000000000000E-01  1.9149786699848E+00  4.3132797602414E-01
33  3.2000000000000E-01  1.9279722276997E+00  4.5410719823562E-01
34  3.3000000000000E-01  1.9315210912733E+00  4.7643885664938E-01
35  3.4000000000000E-01  1.9255579489186E+00  4.9841603105149E-01
36  3.5000000000000E-01  1.9101111196906E+00  5.2017416116443E-01
37  3.6000000000000E-01  1.8853027178023E+00  5.4188647451781E-01
38  3.7000000000000E-01  1.8513453521099E+00  5.6375776397667E-01
39  3.8000000000000E-01  1.8085374548628E+00  5.8601670891999E-01
40  3.9000000000000E-01  1.7572573687969E+00  6.0890699354406E-01
41  4.0000000000000E-01  1.6979563524914E+00  6.3267752668699E-01
42  4.1000000000000E-01  1.6311506895678E+00  6.5757210785984E-01
43  4.2000000000000E-01  1.5574131068833E+00  6.8381891211926E-01
44  4.3000000000000E-01  1.4773637196990E+00  7.1162018076351E-01
45  4.4000000000000E-01  1.3916607274482E+00  7.4114250480752E-01
46  4.5000000000000E-01  1.3009910820252E+00  7.7250807355751E-01
47  4.6000000000000E-01  1.2060613415542E+00  8.0578723167254E-01
48  4.7000000000000E-01  1.1075889067453E+00  8.4099264573001E-01
49  4.8000000000000E-01  1.0062938148136E+00  8.7807532688793E-01
50  4.9000000000000E-01  9.0289123839728E-01  9.1692269161939E-01
51  5.0000000000000E-01  7.9808480499755E-01  9.5735876996679E-01
52  5.1000000000000E-01  6.9256081742716E-01  9.9914659294013E-01
53  5.2000000000000E-01  5.8698341892467E-01  1.0419927104272E+00
54  5.3000000000000E-01  4.8199070939824E-01  1.0855537112943E+00
55  5.4000000000000E-01  3.7819178313877E-01  1.1294445412624E+00
56  5.5000000000000E-01  2.7616462468818E-01  1.1732483445863E+00
57  5.6000000000000E-01  1.7645476967320E-01  1.2165274952834E+00
58  5.7000000000000E-01  7.9574612481968E-02  1.2588354350890E+00
59  5.8000000000000E-01 -1.3996776355289E-02  1.2997289004790E+00
60  5.9000000000000E-01 -1.0381347257506E-01  1.3387801015390E+00
61  6.0000000000000E-01 -1.8946231508537E-01  1.3755884121466E+00
62  6.1000000000000E-01 -2.7056246994672E-01  1.4097911442509E+00
63  6.2000000000000E-01 -3.4676508464165E-01  1.4410730087217E+00
64  6.3000000000000E-01 -4.1775315963168E-01  1.4691739104252E+00
65  6.4000000000000E-01 -4.8324174181702E-01  1.4938947843717E+00
66  6.5000000000000E-01 -5.4297851690124E-01  1.5151012509277E+00
67  6.6000000000000E-01 -5.9674484598588E-01  1.5327249486578E+00
68  6.7000000000000E-01 -6.4435725732734E-01  1.5467624904179E+00
69  6.8000000000000E-01 -6.8566936856492E-01  1.5572720786374E+00
70  6.9000000000000E-01 -7.2057417943222E-01  1.5643679058821E+00
71  7.0000000000000E-01 -7.4900664156658E-01  1.5682125533486E+00
72  7.1000000000000E-01 -7.7094638206015E-01  1.5690076795013E+00
73  7.2000000000000E-01 -7.8642043226337E-01  1.5669833605004E+00
74  7.3000000000000E-01 -7.9550579430535E-01  1.5623865005275E+00
75  7.4000000000000E-01 -7.9833166585928E-01  1.5554687712561E+00
76  7.5000000000000E-01 -7.9508113960951E-01  1.5464745636931E+00
77  7.6000000000000E-01 -7.8599219812810E-01  1.5356294412518E+00
78  7.7000000000000E-01 -7.7135783756311E-01  1.5231295696972E+00
79  7.8000000000000E-01 -7.5152517447240E-01  1.5091325677238E+00
80  7.9000000000000E-01 -7.2689341874799E-01  1.4937501723087E+00
81  8.0000000000000E-01 -6.9791063099455E-01  1.4770430472375E+00
82  8.1000000000000E-01 -6.6506922377702E-01  1.4590179835812E+00
83  8.2000000000000E-01 -6.2890021140289E-01  1.4396276502225E+00
84  8.3000000000000E-01 -5.8996626071266E-01  1.4187729540930E+00
85  8.4000000000000E-01 -5.4885364392259E-01  1.3963079672215E+00
86  8.5000000000000E-01 -5.0616324201159E-01  1.3720472748938E+00
87  8.6000000000000E-01 -4.6250079156898E-01  1.3457755001291E+00
88  8.7000000000000E-01 -4.1846660756742E-01  1.3172586682097E+00
89  8.8000000000000E-01 -3.7464504746256E-01  1.2862569948384E+00
90  8.9000000000000E-01 -3.3159400679809E-01  1.2525386160388E+00
91  9.0000000000000E-01 -2.8983475180473E-01  1.2158937300494E+00
92  9.1000000000000E-01 -2.4984239931059E-01  1.1761485935584E+00
93  9.2000000000000E-01 -2.1203734794680E-01  1.1331788083773E+00
94  9.3000000000000E-01 -1.7677794681531E-01  1.0869213510466E+00
95  9.4000000000000E-01 -1.4435465854277E-01  1.0373848371502E+00
96  9.5000000000000E-01 -1.1498593340831E-01  9.8465757375206E-01
97  9.6000000000000E-01 -8.8815960796605E-02  9.2891303612472E-01
98  9.7000000000000E-01 -6.5914404765526E-02  8.7041250678208E-01
99  9.8000000000000E-01 -4.6278163416881E-02  8.0950473326773E-01
100  9.9000000000000E-01 -2.9835118799362E-02  7.4662259292339E-01
101  1.0000000000000E+00 -1.6449767105230E-02  6.8227689448988E-01
102  1.0100000000000E+00 -5.9305400769864E-03  6.1704759383560E-01
103  1.0200000000000E+00  1.9614501771685E-03  5.5157285051262E-01
104  1.0300000000000E+00  7.5025870796054E-03  4.8653649881304E-01
105  1.0400000000000E+00  1.0996262199726E-02  4.2265464754248E-01
106  1.0500000000000E+00  1.2762206239147E-02  3.6066225325431E-01
107  1.0600000000000E+00  1.3126177464728E-02  3.0130062826233E-01
108  1.0700000000000E+00  1.2410594570006E-02  2.4530694464184E-01
109  1.0800000000000E+00  1.0926705842534E-02  1.9340683144731E-01
110  1.0900000000000E+00  8.9692351953018E-03  1.4631165828045E-01
111  1.1000000000000E+00  6.7973619474024E-03  1.0469723048899E-01
112  1.1100000000000E+00  4.6177164624257E-03  6.9181711586956E-02
113  1.1200000000000E+00  2.7012657534999E-03  4.0488660288362E-02
114  1.1300000000000E+00  1.2453817319504E-03  1.9200222710408E-02
115  1.1400000000000E+00  3.4775960115951E-04  5.6809170471568E-03
116  1.1500000000000E+00  1.3281637568788E-05  2.3953650234322E-04
117  1.1600000000000E+00  9.2026208591151E-07  1.6342214600679E-05
118  1.1700000000000E+00 -2.6871082928129E-07 -4.5927512472941E-06
119  1.18  0.  0.
120  1.19  0.  0.
121  1.20  0.  0.
122  1.21  0.  0.
123  1.22  0.  0.
124  1.23  0.  0.
125  1.24  0.  0.
126  1.25  0.  0.
127  1.26  0.  0.
128  1.27  0.  0.
129  1.28  0.  0.
130  1.29  0.  0.
131  1.30  0.  0.
132  1.31  0.  0.
133  1.32  0.  0.
134  1.33  0.  0.
135  1.34  0.  0.
136  1.35  0.  0.
137  1.36  0.  0.
138  1.37  0.  0.
139  1.38  0.  0.
140  1.39  0.  0.
141  1.40  0.  0.
142  1.41  0.  0.
143  1.42  0.  0.
144  1.43  0.  0.
145  1.44  0.  0.
146  1.45  0.  0.
147  1.46  0.  0.
148  1.47  0.  0.
149  1.48  0.  0.
150  1.49  0.  0.
151  1.50  0.  0.
152  1.51  0.  0.
153  1.52  0.  0.
154  1.53  0.  0.
155  1.54  0.  0.
156  1.55  0.  0.
157  1.56  0.  0.
158  1.57  0.  0.
159  1.58  0.  0.
160  1.59  0.  0.
161  1.60  0.  0.
162  1.61  0.  0.
163  1.62  0.  0.
164  1.63  0.  0.
165  1.64  0.  0.