Bk    ONCVPSP-4.0.1  r_core=   1.15197   1.15197   1.15197   1.35390
97.0000     37.0000      230612    zatom,zion,pspd
8      11   3     4   600     0    pspcod,pspxc,lmax,lloc,mmax,r2well
5.99000000  5.00000000  0.00000000    rchrg fchrg qchrg
3     3     3     2    nproj
3     1           extension_switch
4     4     4    nprojso
0                         2.7360599522219E+01  3.1920854919905E+00 -1.1171066022846E+00
1  0.0000000000000E+00 -9.8082705735081E-08  3.2973993480123E-07  1.5092796457061E-08
2  1.0000000000000E-02  1.6044197895850E-01 -8.0381570074555E-02  2.7513921769277E-02
3  2.0000000000000E-02  3.1958273642027E-01 -1.5851822691880E-01  5.4989707093790E-02
4  3.0000000000000E-02  4.7614415565546E-01 -2.3223219987507E-01  8.2386768106771E-02
5  4.0000000000000E-02  6.2889360538726E-01 -2.9947760388856E-01  1.0965973275032E-01
6  5.0000000000000E-02  7.7666489939392E-01 -3.5840047442860E-01  1.3675634522295E-01
7  6.0000000000000E-02  9.1837719113068E-01 -4.0739196418896E-01  1.6361570615833E-01
8  7.0000000000000E-02  1.0530512365611E+00 -4.4513283053199E-01  1.9016694729295E-01
9  8.0000000000000E-02  1.1798225564701E+00 -4.7062767238103E-01  2.1632842028823E-01
10  9.0000000000000E-02  1.2979511448199E+00 -4.8322776300004E-01  2.4200746141880E-01
11  1.0000000000000E-01  1.4068274977548E+00 -4.8264175592978E-01  2.6710077359415E-01
12  1.1000000000000E-01  1.5059748737037E+00 -4.6893399872059E-01  2.9149544528493E-01
13  1.2000000000000E-01  1.5950478334411E+00 -4.4251065545171E-01  3.1507060307597E-01
14  1.3000000000000E-01  1.6738272445870E+00 -4.0409429644255E-01  3.3769967149553E-01
15  1.4000000000000E-01  1.7422120626437E+00 -3.5468804448822E-01  3.5925319121447E-01
16  1.5000000000000E-01  1.8002083153452E+00 -2.9553075486150E-01  3.7960212540062E-01
17  1.6000000000000E-01  1.8479158144464E+00 -2.2804503635101E-01  3.9862156464650E-01
18  1.7000000000000E-01  1.8855131953538E+00 -1.5378018012722E-01  4.1619472410249E-01
19  1.8000000000000E-01  1.9132419372971E+00 -7.4352242344736E-02  4.3221711280579E-01
20  1.9000000000000E-01  1.9313900430915E+00  8.6163816861678E-03  4.4660074516749E-01
21  2.0000000000000E-01  1.9402760569811E+00  9.3555552612228E-02  4.5927825852690E-01
22  2.1000000000000E-01  1.9402340716776E+00  1.7900190149281E-01  4.7020679884381E-01
23  2.2000000000000E-01  1.9316003226671E+00  2.6364718979432E-01  4.7937153908728E-01
24  2.3000000000000E-01  1.9147018912861E+00  3.4637869723385E-01  4.8678870167180E-01
25  2.4000000000000E-01  1.8898479410459E+00  4.2631014581796E-01  4.9250796723241E-01
26  2.5000000000000E-01  1.8573237980771E+00  5.0280205163756E-01  4.9661416683474E-01
27  2.6000000000000E-01  1.8173880608976E+00  5.7547082138541E-01  4.9922817297549E-01
28  2.7000000000000E-01  1.7702727919778E+00  6.4418636158158E-01  5.0050692592682E-01
29  2.8000000000000E-01  1.7161867090602E+00  7.0905842751740E-01  5.0064255549910E-01
30  2.9000000000000E-01  1.6553211632401E+00  7.7041238807640E-01  4.9986058345121E-01
31  3.0000000000000E-01  1.5878585686398E+00  8.2875550436078E-01  4.9841721781733E-01
32  3.1000000000000E-01  1.5139828399906E+00  8.8473519800443E-01  4.9659577656227E-01
33  3.2000000000000E-01  1.4338913039039E+00  9.3909110447971E-01  4.9470230343254E-01
34  3.3000000000000E-01  1.3478074807080E+00  9.9260295516331E-01  4.9306046285916E-01
35  3.4000000000000E-01  1.2559940892366E+00  1.0460364997463E+00  4.9200582255123E-01
36  3.5000000000000E-01  1.1587656087087E+00  1.1000897612468E+00  4.9187965132017E-01
37  3.6000000000000E-01  1.0564997406283E+00  1.1553419062747E+00  4.9302237509672E-01
38  3.7000000000000E-01  9.4964714920721E-01  1.2122069137125E+00  4.9576684555696E-01
39  3.8000000000000E-01  8.3873891983570E-01  1.2708940395238E+00  5.0043158288357E-01
40  3.9000000000000E-01  7.2439125928611E-01  1.3313768112168E+00  5.0731415671428E-01
41  4.0000000000000E-01  6.0730706538690E-01  1.3933719529209E+00  5.1668486716745E-01
42  4.1000000000000E-01  4.8827411383171E-01  1.4563292540246E+00  5.2878088102600E-01
43  4.2000000000000E-01  3.6815974093386E-01  1.5194329660347E+00  5.4380096689214E-01
44  4.3000000000000E-01  2.4790203840488E-01  1.5816148604028E+00  5.6190095771973E-01
45  4.4000000000000E-01  1.2849771428130E-01  1.6415786221310E+00  5.8319005004333E-01
46  4.5000000000000E-01  1.0986907567143E-02  1.6978348077957E+00  6.0772802702332E-01
47  4.6000000000000E-01 -1.0356463220299E-01  1.7487451795228E+00  6.3552346778518E-01
48  4.7000000000000E-01 -2.1408548026798E-01  1.7925748545594E+00  6.6653297919422E-01
49  4.8000000000000E-01 -3.1951997647226E-01  1.8275503977445E+00  7.0066145898015E-01
50  4.9000000000000E-01 -4.1885049156005E-01  1.8519217433885E+00  7.3776337183880E-01
51  5.0000000000000E-01 -5.1111979917901E-01  1.8640256729943E+00  7.7764499362887E-01
52  5.1000000000000E-01 -5.9545281685911E-01  1.8623485018829E+00  8.2006755385987E-01
53  5.2000000000000E-01 -6.7107699058549E-01  1.8455856437514E+00  8.6475118409608E-01
54  5.3000000000000E-01 -7.3734063583169E-01  1.8126958265823E+00  9.1137956036625E-01
55  5.4000000000000E-01 -7.9372861158986E-01  1.7629479218555E+00  9.5960511175824E-01
56  5.5000000000000E-01 -8.3987479056882E-01  1.6959586141064E+00  1.0090546555630E+00
57  5.6000000000000E-01 -8.7557089499785E-01  1.6117194690321E+00  1.0593353119495E+00
58  5.7000000000000E-01 -9.0077138929842E-01  1.5106123425872E+00  1.1100405483943E+00
59  5.8000000000000E-01 -9.1559425361244E-01  1.3934124958262E+00  1.1607562059936E+00
60  5.9000000000000E-01 -9.2031760076487E-01  1.2612792243333E+00  1.2110663662392E+00
61  6.0000000000000E-01 -9.1537223845362E-01  1.1157342598322E+00  1.2605589275758E+00
62  6.1000000000000E-01 -9.0133041309080E-01  9.5862863791879E-01  1.3088307756628E+00
63  6.2000000000000E-01 -8.7889109677964E-01  7.9209913333718E-01  1.3554924492089E+00
64  6.3000000000000E-01 -8.4886228982938E-01  6.1851572765528E-01  1.4001722238737E+00
65  6.4000000000000E-01 -8.1214090402213E-01  4.4042188029492E-01  1.4425195593010E+00
66  6.5000000000000E-01 -7.6969086332399E-01  2.6046961171325E-01  1.4822078780584E+00
67  6.6000000000000E-01 -7.2252010652601E-01  8.1351568985098E-02  1.5189366692613E+00
68  6.7000000000000E-01 -6.7165719900356E-01 -9.4267675954106E-02  1.5524329331104E+00
69  6.8000000000000E-01 -6.1812825798223E-01 -2.6381884840622E-01  1.5824520046293E+00
70  6.9000000000000E-01 -5.6293486798072E-01 -4.2489155143356E-01  1.6087778147882E+00
71  7.0000000000000E-01 -5.0703361199946E-01 -5.7529220522424E-01  1.6312226642166E+00
72  7.1000000000000E-01 -4.5131777196542E-01 -7.1309457774988E-01  1.6496265982650E+00
73  7.2000000000000E-01 -3.9660166209970E-01 -8.3668143085980E-01  1.6638564817774E+00
74  7.3000000000000E-01 -3.4360795506296E-01 -9.4477614506798E-01  1.6738048772629E+00
75  7.4000000000000E-01 -2.9295824721633E-01 -1.0364635590371E+00  1.6793888310203E+00
76  7.5000000000000E-01 -2.4516699064338E-01 -1.1111996513746E+00  1.6805486681626E+00
77  7.6000000000000E-01 -2.0063880035048E-01 -1.1688100876035E+00  1.6772468895582E+00
78  7.7000000000000E-01 -1.5966902981202E-01 -1.2094780391253E+00  1.6694672517606E+00
79  7.8000000000000E-01 -1.2244740097667E-01 -1.2337220395672E+00  1.6572140955081E+00
80  7.9000000000000E-01 -8.9064379800326E-02 -1.2423649643011E+00  1.6405119699296E+00
81  8.0000000000000E-01 -5.9519908488268E-02 -1.2364954903268E+00  1.6194055789234E+00
82  8.1000000000000E-01 -3.3734043395743E-02 -1.2174236074646E+00  1.5939600540872E+00
83  8.2000000000000E-01 -1.1559004637609E-02 -1.1866319018223E+00  1.5642615359516E+00
84  8.3000000000000E-01  7.2078792575308E-03 -1.1457244153853E+00  1.5304180230321E+00
85  8.4000000000000E-01  2.2810850830156E-02 -1.0963749006711E+00  1.4925604272836E+00
86  8.5000000000000E-01  3.5522529610235E-02 -1.0402762386788E+00  1.4508437558315E+00
87  8.6000000000000E-01  4.5631312034043E-02 -9.7909267633361E-01  1.4054483232031E+00
88  8.7000000000000E-01  5.3429782498880E-02 -9.1441637289370E-01  1.3565808864766E+00
89  8.8000000000000E-01  5.9204489301774E-02 -8.4772953176813E-01  1.3044755884488E+00
90  8.9000000000000E-01  6.3227365911562E-02 -7.8037314462340E-01  1.2493945916417E+00
91  9.0000000000000E-01  6.5748998100731E-02 -7.1352309904376E-01  1.1916282891046E+00
92  9.1000000000000E-01  6.6993854253384E-02 -6.4817411020504E-01  1.1314949867461E+00
93  9.2000000000000E-01  6.7157512848925E-02 -5.8513164148496E-01  1.0693399664225E+00
94  9.3000000000000E-01  6.6405840642058E-02 -5.2501168850073E-01  1.0055338590923E+00
95  9.4000000000000E-01  6.4875999891782E-02 -4.6824802416480E-01  9.4047028277021E-01
96  9.5000000000000E-01  6.2679095089853E-02 -4.1510624584674E-01  8.7456273033120E-01
97  9.6000000000000E-01  5.9904210291417E-02 -3.6570373442579E-01  8.0824072688261E-01
98  9.7000000000000E-01  5.6623537958302E-02 -3.2003443159974E-01  7.4194531470789E-01
99  9.8000000000000E-01  5.2898258982826E-02 -2.7799716635618E-01  6.7612396494916E-01
100  9.9000000000000E-01  4.8784800390972E-02 -2.3942611205028E-01  6.1122505829991E-01
101  1.0000000000000E+00  4.4341070436721E-02 -2.0412182740053E-01  5.4769212114000E-01
102  1.0100000000000E+00  3.9632248103365E-02 -1.7188122138181E-01  4.8595804775113E-01
103  1.0200000000000E+00  3.4735682485207E-02 -1.4252467472438E-01  4.2643958260694E-01
104  1.0300000000000E+00  2.9744433757170E-02 -1.1591843943607E-01  3.6953237821782E-01
105  1.0400000000000E+00  2.4768957732452E-02 -9.1990311115533E-02  3.1560698274950E-01
106  1.0500000000000E+00  1.9936396280417E-02 -7.0736414215882E-02  2.6500614685728E-01
107  1.0600000000000E+00  1.5386882133252E-02 -5.2216745552036E-02  2.1804387002174E-01
108  1.0700000000000E+00  1.1266194878349E-02 -3.6536873726347E-02  1.7500663257877E-01
109  1.0800000000000E+00  7.7139529704655E-03 -2.3812712084586E-02  1.3615723564730E-01
110  1.0900000000000E+00  4.8469912030346E-03 -1.4116557771660E-02  1.0174212888210E-01
111  1.1000000000000E+00  2.7073448569660E-03 -7.3151910499422E-03  7.1979312729959E-02
112  1.1100000000000E+00  1.2026786756782E-03 -2.8763756236814E-03  4.7047158665860E-02
113  1.1200000000000E+00  3.1184830620262E-04 -4.7071887135289E-04  2.7247741613929E-02
114  1.1300000000000E+00 -6.1829093984784E-05  3.8695826238341E-04  1.2791856131726E-02
115  1.1400000000000E+00 -8.7369239106967E-05  3.0565825296282E-04  3.7484896275420E-03
116  1.1500000000000E+00 -7.1397941521740E-06  2.2038219979733E-05  1.5649779838415E-04
117  1.1600000000000E+00 -4.6262463655686E-07  1.4489315354419E-06  1.0682710919988E-05
118  1.1700000000000E+00  1.0295594873514E-07 -3.3452231681540E-07 -3.0150413583864E-06
119  1.18  0.  0.  0.
120  1.19  0.  0.  0.
121  1.20  0.  0.  0.
122  1.21  0.  0.  0.
123  1.22  0.  0.  0.
124  1.23  0.  0.  0.
125  1.24  0.  0.  0.
126  1.25  0.  0.  0.
127  1.26  0.  0.  0.
128  1.27  0.  0.  0.
129  1.28  0.  0.  0.
130  1.29  0.  0.  0.
131  1.30  0.  0.  0.
132  1.31  0.  0.  0.
133  1.32  0.  0.  0.
134  1.33  0.  0.  0.
135  1.34  0.  0.  0.
136  1.35  0.  0.  0.
137  1.36  0.  0.  0.
138  1.37  0.  0.  0.
139  1.38  0.  0.  0.
140  1.39  0.  0.  0.
141  1.40  0.  0.  0.
142  1.41  0.  0.  0.
143  1.42  0.  0.  0.
144  1.43  0.  0.  0.
145  1.44  0.  0.  0.
146  1.45  0.  0.  0.
147  1.46  0.  0.  0.
148  1.47  0.  0.  0.
149  1.48  0.  0.  0.
150  1.49  0.  0.  0.
151  1.50  0.  0.  0.
152  1.51  0.  0.  0.
153  1.52  0.  0.  0.
154  1.53  0.  0.  0.
155  1.54  0.  0.  0.
156  1.55  0.  0.  0.
157  1.56  0.  0.  0.
158  1.57  0.  0.  0.
159  1.58  0.  0.  0.
160  1.59  0.  0.  0.
161  1.60  0.  0.  0.
162  1.61  0.  0.  0.
163  1.62  0.  0.  0.
164  1.63  0.  0.  0.
165  1.64  0.  0.  0.
166  1.65  0.  0.  0.
167  1.66  0.  0.  0.
168  1.67  0.  0.  0.
169  1.68  0.  0.  0.
170  1.69  0.  0.  0.
171  1.70  0.  0.  0.
172  1.71  0.  0.  0.
173  1.72  0.  0.  0.
174  1.73  0.  0.  0.
175  1.74  0.  0.  0.
176  1.75  0.  0.  0.
177  1.76  0.  0.  0.
178  1.77  0.  0.  0.
179  1.78  0.  0.  0.
180  1.79  0.  0.  0.
181  1.80  0.  0.  0.
182  1.81  0.  0.  0.
183  1.82  0.  0.  0.
184  1.83  0.  0.  0.
185  1.84  0.  0.  0.
186  1.85  0.  0.  0.
187  1.86  0.  0.  0.
188  1.87  0.  0.  0.
189  1.88  0.  0.  0.
190  1.89  0.  0.  0.
191  1.90  0.  0.  0.
192  1.91  0.  0.  0.
193  1.92  0.  0.  0.
194  1.93  0.  0.  0.
195  1.94  0.  0.  0.
196  1.95  0.  0.  0.
197  1.96  0.  0.  0.
198  1.97  0.  0.  0.
199  1.98  0.  0.  0.
200  1.99  0.  0.  0.
201  2.00  0.  0.  0.
202  2.01  0.  0.  0.
203  2.02  0.  0.  0.
204  2.03  0.  0.  0.
205  2.04  0.  0.  0.
206  2.05  0.  0.  0.
207  2.06  0.  0.  0.
208  2.07  0.  0.  0.
209  2.08  0.  0.  0.
210  2.09  0.  0.  0.
211  2.10  0.  0.  0.
212  2.11  0.  0.  0.
213  2.12  0.  0.  0.
214  2.13  0.  0.  0.
215  2.14  0.  0.  0.
216  2.15  0.  0.  0.
217  2.16  0.  0.  0.
218  2.17  0.  0.  0.
219  2.18  0.  0.  0.
220  2.19  0.  0.  0.
221  2.20  0.  0.  0.
222  2.21  0.  0.  0.
223  2.22  0.  0.  0.
224  2.23  0.  0.  0.
225  2.24  0.  0.  0.
226  2.25  0.  0.  0.
227  2.26  0.  0.  0.
228  2.27  0.  0.  0.
229  2.28  0.  0.  0.
230  2.29  0.  0.  0.
231  2.30  0.  0.  0.
232  2.31  0.  0.  0.
233  2.32  0.  0.  0.
234  2.33  0.  0.  0.
235  2.34  0.  0.  0.
236  2.35  0.  0.  0.
237  2.36  0.  0.  0.
238  2.37  0.  0.  0.
239  2.38  0.  0.  0.
240  2.39  0.  0.  0.
241  2.40  0.  0.  0.
242  2.41  0.  0.  0.
243  2.42  0.  0.  0.
244  2.43  0.  0.  0.
245  2.44  0.  0.  0.
246  2.45  0.  0.  0.
247  2.46  0.  0.  0.
248  2.47  0.  0.  0.
249  2.48  0.  0.  0.
250  2.49  0.  0.  0.
251  2.50  0.  0.  0.
252  2.51  0.  0.  0.
253  2.52  0.  0.  0.
254  2.53  0.  0.  0.
255  2.54  0.  0.  0.
256  2.55  0.  0.  0.
257  2.56  0.  0.  0.
258  2.57  0.  0.  0.
259  2.58  0.  0.  0.
260  2.59  0.  0.  0.
261  2.60  0.  0.  0.
262  2.61  0.  0.  0.
263  2.62  0.  0.  0.
264  2.63  0.  0.  0.
265  2.64  0.  0.  0.
266  2.65  0.  0.  0.
267  2.66  0.  0.  0.
268  2.67  0.  0.  0.
269  2.68  0.  0.  0.
270  2.69  0.  0.  0.
271  2.70  0.  0.  0.
272  2.71  0.  0.  0.
273  2.72  0.  0.  0.
274  2.73  0.  0.  0.
275  2.74  0.  0.  0.
276  2.75  0.  0.  0.
277  2.76  0.  0.  0.
278  2.77  0.  0.  0.
279  2.78  0.  0.  0.
280  2.79  0.  0.  0.
281  2.80  0.  0.  0.
282  2.81  0.  0.  0.
283  2.82  0.  0.  0.
284  2.83  0.  0.  0.
285  2.84  0.  0.  0.
286  2.85  0.  0.  0.
287  2.86  0.  0.  0.
288  2.87  0.  0.  0.
289  2.88  0.  0.  0.
290  2.89  0.  0.  0.
291  2.90  0.  0.  0.
292  2.91  0.  0.  0.
293  2.92  0.  0.  0.
294  2.93  0.  0.  0.
295  2.94  0.  0.  0.
296  2.95  0.  0.  0.
297  2.96  0.  0.  0.
298  2.97  0.  0.  0.
299  2.98  0.  0.  0.
300  2.99  0.  0.  0.
301  3.00  0.  0.  0.
302  3.01  0.  0.  0.
303  3.02  0.  0.  0.
304  3.03  0.  0.  0.
305  3.04  0.  0.  0.
306  3.05  0.  0.  0.
307  3.06  0.  0.  0.
308  3.07  0.  0.  0.
309  3.08  0.  0.  0.
310  3.09  0.  0.  0.
311  3.10  0.  0.  0.
312  3.11  0.  0.  0.
313  3.12  0.  0.  0.
314  3.13  0.  0.  0.
315  3.14  0.  0.  0.
316  3.15  0.  0.  0.
317  3.16  0.  0.  0.
318  3.17  0.  0.  0.
319  3.18  0.  0.  0.
320  3.19  0.  0.  0.
321  3.20  0.  0.  0.
322  3.21  0.  0.  0.
323  3.22  0.  0.  0.
324  3.23  0.  0.  0.
325  3.24  0.  0.  0.
326  3.25  0.  0.  0.
327  3.26  0.  0.  0.
328  3.27  0.  0.  0.
329  3.28  0.  0.  0.
330  3.29  0.  0.  0.
331  3.30  0.  0.  0.
332  3.31  0.  0.  0.
333  3.32  0.  0.  0.
334  3.33  0.  0.  0.
335  3.34  0.  0.  0.
336  3.35  0.  0.  0.
337  3.36  0.  0.  0.
338  3.37  0.  0.  0.
339  3.38  0.  0.  0.
340  3.39  0.  0.  0.
341  3.40  0.  0.  0.
342  3.41  0.  0.  0.
343  3.42  0.  0.  0.
344  3.43  0.  0.  0.
345  3.44  0.  0.  0.
346  3.45  0.  0.  0.
347  3.46  0.  0.  0.
348  3.47  0.  0.  0.
349  3.48  0.  0.  0.
350  3.49  0.  0.  0.
351  3.50  0.  0.  0.
352  3.51  0.  0.  0.
353  3.52  0.  0.  0.
354  3.53  0.  0.  0.
355  3.54  0.  0.  0.
356  3.55  0.  0.  0.
357  3.56  0.  0.  0.
358  3.57  0.  0.  0.
359  3.58  0.  0.  0.
360  3.59  0.  0.  0.
361  3.60  0.  0.  0.
362  3.61  0.  0.  0.
363  3.62  0.  0.  0.
364  3.63  0.  0.  0.
365  3.64  0.  0.  0.
366  3.65  0.  0.  0.
367  3.66  0.  0.  0.
368  3.67  0.  0.  0.
369  3.68  0.  0.  0.
370  3.69  0.  0.  0.
371  3.70  0.  0.  0.
372  3.71  0.  0.  0.
373  3.72  0.  0.  0.
374  3.73  0.  0.  0.
375  3.74  0.  0.  0.
376  3.75  0.  0.  0.
377  3.76  0.  0.  0.
378  3.77  0.  0.  0.
379  3.78  0.  0.  0.
380  3.79  0.  0.  0.
381  3.80  0.  0.  0.
382  3.81  0.  0.  0.
383  3.82  0.  0.  0.
384  3.83  0.  0.  0.
385  3.84  0.  0.  0.
386  3.85  0.  0.  0.
387  3.86  0.  0.  0.
388  3.87  0.  0.  0.
389  3.88  0.  0.  0.
390  3.89  0.  0.  0.
391  3.90  0.  0.  0.
392  3.91  0.  0.  0.
393  3.92  0.  0.  0.
394  3.93  0.  0.  0.
395  3.94  0.  0.  0.
396  3.95  0.  0.  0.
397  3.96  0.  0.  0.
398  3.97  0.  0.  0.
399  3.98  0.  0.  0.
400  3.99  0.  0.  0.
401  4.00  0.  0.  0.
402  4.01  0.  0.  0.
403  4.02  0.  0.  0.
404  4.03  0.  0.  0.
405  4.04  0.  0.  0.
406  4.05  0.  0.  0.
407  4.06  0.  0.  0.
408  4.07  0.  0.  0.
409  4.08  0.  0.  0.
410  4.09  0.  0.  0.
411  4.10  0.  0.  0.
412  4.11  0.  0.  0.
413  4.12  0.  0.  0.
414  4.13  0.  0.  0.
415  4.14  0.  0.  0.
416  4.15  0.  0.  0.
417  4.16  0.  0.  0.
418  4.17  0.  0.  0.
419  4.18  0.  0.  0.
420  4.19  0.  0.  0.
421  4.20  0.  0.  0.
422  4.21  0.  0.  0.
423  4.22  0.  0.  0.
424  4.23  0.  0.  0.
425  4.24  0.  0.  0.
426  4.25  0.  0.  0.
427  4.26  0.  0.  0.
428  4.27  0.  0.  0.
429  4.28  0.  0.  0.
430  4.29  0.  0.  0.
431  4.30  0.  0.  0.
432  4.31  0.  0.  0.
433  4.32  0.  0.  0.
434  4.33  0.  0.  0.
435  4.34  0.  0.  0.
436  4.35  0.  0.  0.
437  4.36  0.  0.  0.
438  4.37  0.  0.  0.
439  4.38  0.  0.  0.
440  4.39  0.  0.  0.
441  4.40  0.  0.  0.
442  4.41  0.  0.  0.
443  4.42  0.  0.  0.
444  4.43  0.  0.  0.
445  4.44  0.  0.  0.
446  4.45  0.  0.  0.
447  4.46  0.  0.  0.
448  4.47  0.  0.  0.
449  4.48  0.  0.  0.
450  4.49  0.  0.  0.
451  4.50  0.  0.  0.
452  4.51  0.  0.  0.
453  4.52  0.  0.  0.
454  4.53  0.  0.  0.
455  4.54  0.  0.  0.
456  4.55  0.  0.  0.
457  4.56  0.  0.  0.
458  4.57  0.  0.  0.
459  4.58  0.  0.  0.
460  4.59  0.  0.  0.
461  4.60  0.  0.  0.
462  4.61  0.  0.  0.
463  4.62  0.  0.  0.
464  4.63  0.  0.  0.
465  4.64  0.  0.  0.
466  4.65  0.  0.  0.
467  4.66  0.  0.  0.
468  4.67  0.  0.  0.
469  4.68  0.  0.  0.
470  4.69  0.  0.  0.
471  4.70  0.  0.  0.
472  4.71  0.  0.  0.
473  4.72  0.  0.  0.
474  4.73  0.  0.  0.
475  4.74  0.  0.  0.
476  4.75  0.  0.  0.
477  4.76  0.  0.  0.
478  4.77  0.  0.  0.
479  4.78  0.  0.  0.
480  4.79  0.  0.  0.
481  4.80  0.  0.  0.
482  4.81  0.  0.  0.
483  4.82  0.  0.  0.
484  4.83  0.  0.  0.
485  4.84  0.  0.  0.
486  4.85  0.  0.  0.
487  4.86  0.  0.  0.
488  4.87  0.  0.  0.
489  4.88  0.  0.  0.
490  4.89  0.  0.  0.
491  4.90  0.  0.  0.
492  4.91  0.  0.  0.
493  4.92  0.  0.  0.
494  4.93  0.  0.  0.
495  4.94  0.  0.  0.
496  4.95  0.  0.  0.
497  4.96  0.  0.  0.
498  4.97  0.  0.  0.
499  4.98  0.  0.  0.
500  4.99  0.  0.  0.
501  5.00  0.  0.  0.
502  5.01  0.  0.  0.
503  5.02  0.  0.  0.
504  5.03  0.  0.  0.
505  5.04  0.  0.  0.
506  5.05  0.  0.  0.
507  5.06  0.  0.  0.
508  5.07  0.  0.  0.
509  5.08  0.  0.  0.
510  5.09  0.  0.  0.
511  5.10  0.  0.  0.
512  5.11  0.  0.  0.
513  5.12  0.  0.  0.
514  5.13  0.  0.  0.
515  5.14  0.  0.  0.
516  5.15  0.  0.  0.
517  5.16  0.  0.  0.
518  5.17  0.  0.  0.
519  5.18  0.  0.  0.
520  5.19  0.  0.  0.
521  5.20  0.  0.  0.
522  5.21  0.  0.  0.
523  5.22  0.  0.  0.
524  5.23  0.  0.  0.
525  5.24  0.  0.  0.
526  5.25  0.  0.  0.
527  5.26  0.  0.  0.
528  5.27  0.  0.  0.
529  5.28  0.  0.  0.
530  5.29  0.  0.  0.
531  5.30  0.  0.  0.
532  5.31  0.  0.  0.
533  5.32  0.  0.  0.
534  5.33  0.  0.  0.
535  5.34  0.  0.  0.
536  5.35  0.  0.  0.
537  5.36  0.  0.  0.
538  5.37  0.  0.  0.
539  5.38  0.  0.  0.
540  5.39  0.  0.  0.
541  5.40  0.  0.  0.
542  5.41  0.  0.  0.
543  5.42  0.  0.  0.
544  5.43  0.  0.  0.
545  5.44  0.  0.  0.
546  5.45  0.  0.  0.
547  5.46  0.  0.  0.
548  5.47  0.  0.  0.
549  5.48  0.  0.  0.
550  5.49  0.  0.  0.
551  5.50  0.  0.  0.
552  5.51  0.  0.  0.
553  5.52  0.  0.  0.
554  5.53  0.  0.  0.
555  5.54  0.  0.  0.
556  5.55  0.  0.  0.
557  5.56  0.  0.  0.
558  5.57  0.  0.  0.
559  5.58  0.  0.  0.
560  5.59  0.  0.  0.
561  5.60  0.  0.  0.
562  5.61  0.  0.  0.
563  5.62  0.  0.  0.
564  5.63  0.  0.  0.
565  5.64  0.  0.  0.
566  5.65  0.  0.  0.
567  5.66  0.  0.  0.
568  5.67  0.  0.  0.
569  5.68  0.  0.  0.
570  5.69  0.  0.  0.
571  5.70  0.  0.  0.
572  5.71  0.  0.  0.
573  5.72  0.  0.  0.
574  5.73  0.  0.  0.
575  5.74  0.  0.  0.
576  5.75  0.  0.  0.
577  5.76  0.  0.  0.
578  5.77  0.  0.  0.
579  5.78  0.  0.  0.
580  5.79  0.  0.  0.
581  5.80  0.  0.  0.
582  5.81  0.  0.  0.
583  5.82  0.  0.  0.
584  5.83  0.  0.  0.
585  5.84  0.  0.  0.
586  5.85  0.  0.  0.
587  5.86  0.  0.  0.
588  5.87  0.  0.  0.
589  5.88  0.  0.  0.
590  5.89  0.  0.  0.
591  5.90  0.  0.  0.
592  5.91  0.  0.  0.
593  5.92  0.  0.  0.
594  5.93  0.  0.  0.
595  5.94  0.  0.  0.
596  5.95  0.  0.  0.
597  5.96  0.  0.  0.
598  5.97  0.  0.  0.
599  5.98  0.  0.  0.
600  5.99  0.  0.  0.
1                         8.3529449674175E+00 -9.7983771504828E-01  5.2654390020822E-02
1  0.0000000000000E+00 -1.5553606180774E-08 -3.5661369385265E-08 -6.6750039384722E-09
2  1.0000000000000E-02  4.1450010339930E-03  1.9545498239240E-04 -5.1755171125088E-03
3  2.0000000000000E-02  1.6550244275854E-02  7.9529042050310E-04 -2.0619542180690E-02
4  3.0000000000000E-02  3.7126413593789E-02  1.8393024374991E-03 -4.6085396084681E-02
5  4.0000000000000E-02  6.5724538884283E-02  3.3917921719899E-03 -8.1164946863473E-02
6  5.0000000000000E-02  1.0213587253814E-01  5.5386151944352E-03 -1.2529311230984E-01
7  6.0000000000000E-02  1.4609179712372E-01  8.3832231732240E-03 -1.7775416704726E-01
8  7.0000000000000E-02  1.9726384043889E-01  1.2041862127806E-02 -2.3768985290725E-01
9  8.0000000000000E-02  2.5526388963679E-01  1.6638127267625E-02 -3.0410928475047E-01
10  9.0000000000000E-02  3.1964470736503E-01  2.2297102199013E-02 -3.7590063291127E-01
11  1.0000000000000E-01  3.8990085916958E-01  2.9139329065193E-02 -4.5184454773028E-01
12  1.1000000000000E-01  4.6547016239161E-01  3.7274865187891E-02 -5.3062927097432E-01
13  1.2000000000000E-01  5.4573576222723E-01  4.6797680593229E-02 -6.1086735341000E-01
14  1.3000000000000E-01  6.3002893054448E-01  5.7780639411411E-02 -6.9111386776990E-01
15  1.4000000000000E-01  7.1763266769873E-01  7.0271286910653E-02 -7.6988597248899E-01
16  1.5000000000000E-01  8.0778616740961E-01  8.4288633613543E-02 -8.4568364482045E-01
17  1.6000000000000E-01  8.9969018041314E-01  9.9821089654631E-02 -9.1701136343726E-01
18  1.7000000000000E-01  9.9251328490961E-01  1.1682565769207E-01 -9.8240048175164E-01
19  1.8000000000000E-01  1.0853990417690E+00  1.3522844296801E-01 -1.0404319954671E+00
20  1.9000000000000E-01  1.1774739811186E+00  1.5492648640788E-01 -1.0897593729222E+00
21  2.0000000000000E-01  1.2678563354838E+00  1.7579087297651E-01 -1.1291310862401E+00
22  2.1000000000000E-01  1.3556654042761E+00  1.9767101494558E-01 -1.1574124567665E+00
23  2.2000000000000E-01  1.4400314062958E+00  2.2039996032777E-01 -1.1736064112624E+00
24  2.3000000000000E-01  1.5201056521638E+00  2.4380053245691E-01 -1.1768727371485E+00
25  2.4000000000000E-01  1.5950708482289E+00  2.6769206932610E-01 -1.1665454268741E+00
26  2.5000000000000E-01  1.6641513284032E+00  2.9189750237985E-01 -1.1421477140116E+00
27  2.6000000000000E-01  1.7266230012389E+00  3.1625049523341E-01 -1.1034044274508E+00
28  2.7000000000000E-01  1.7818227969025E+00  3.4060235414988E-01 -1.0502513251772E+00
29  2.8000000000000E-01  1.8291574027680E+00  3.6482842453847E-01 -9.8284111531050E-01
30  2.9000000000000E-01  1.8681110871993E+00  3.8883370132916E-01 -9.0154592866675E-01
31  3.0000000000000E-01  1.8982524284970E+00  4.1255740548550E-01 -8.0695607302859E-01
32  3.1000000000000E-01  1.9192397895014E+00  4.3597631338286E-01 -6.9987497314414E-01
33  3.2000000000000E-01  1.9308254072992E+00  4.5910666915073E-01 -5.8131028044076E-01
34  3.3000000000000E-01  1.9328580009829E+00  4.8200456084975E-01 -4.5246122051012E-01
35  3.4000000000000E-01  1.9252838374185E+00  5.0476469771473E-01 -3.1470233230682E-01
36  3.5000000000000E-01  1.9081462342712E+00  5.2751758559374E-01 -1.6956383829040E-01
37  3.6000000000000E-01  1.8815835198426E+00  5.5042515893377E-01 -1.8708966930969E-02
38  3.7000000000000E-01  1.8458255092296E+00  5.7367498790047E-01  1.3609137440070E-01
39  3.8000000000000E-01  1.8011885945753E+00  5.9747323617273E-01  2.9298610951531E-01
40  3.9000000000000E-01  1.7480695824473E+00  6.2203659640297E-01  4.5007316138905E-01
41  4.0000000000000E-01  1.6869384424328E+00  6.4758347423893E-01  6.0542970671040E-01
42  4.1000000000000E-01  1.6183301568181E+00  6.7432472636603E-01  7.5714291315345E-01
43  4.2000000000000E-01  1.5428358808322E+00  7.0245428178240E-01  9.0334053806509E-01
44  4.3000000000000E-01  1.4610936357113E+00  7.3213998737371E-01  1.0422207655680E+00
45  4.4000000000000E-01  1.3737787623435E+00  7.6351501815451E-01  1.1720806735116E+00
46  4.5000000000000E-01  1.2815943613293E+00  7.9667017909593E-01  1.2913427520456E+00
47  4.6000000000000E-01  1.1852619360261E+00  8.3164739954776E-01  1.3985789411553E+00
48  4.7000000000000E-01  1.0855124389189E+00  8.6843468364796E-01  1.4925317141101E+00
49  4.8000000000000E-01  9.8307789909787E-01  9.0696273200562E-01  1.5721318057896E+00
50  4.9000000000000E-01  8.7868378058887E-01  9.4710339297554E-01  1.6365122672352E+00
51  5.0000000000000E-01  7.7304218885231E-01  9.8867003800396E-01  1.6850186181378E+00
52  5.1000000000000E-01  6.6684600717465E-01  1.0314198870986E+00  1.7172149646701E+00
53  5.2000000000000E-01  5.6076400728652E-01  1.0750582399569E+00  1.7328860482763E+00
54  5.3000000000000E-01  4.5543694078750E-01  1.1192444982863E+00  1.7320352888293E+00
55  5.4000000000000E-01  3.5147458128841E-01  1.1635997980100E+00  1.7148789800579E+00
56  5.5000000000000E-01  2.4945365301124E-01  1.2077160089273E+00  1.6818368835559E+00
57  5.6000000000000E-01  1.4991655123362E-01  1.2511658063772E+00  1.6335195474151E+00
58  5.7000000000000E-01  5.3370734604209E-02  1.2935134766578E+00  1.5707127443214E+00
59  5.8000000000000E-01 -3.9711350029946E-02  1.3343260871405E+00  1.4943594798763E+00
60  5.9000000000000E-01 -1.2889196230305E-01  1.3731846345320E+00  1.4055400635236E+00
61  6.0000000000000E-01 -2.1376753998497E-01  1.4096947814300E+00  1.3054507607692E+00
62  6.1000000000000E-01 -2.9396810311668E-01  1.4434968025245E+00  1.1953815559399E+00
63  6.2000000000000E-01 -3.6915673685927E-01  1.4742743872967E+00  1.0766935496183E+00
64  6.3000000000000E-01 -4.3902928310051E-01  1.5017619851083E+00  9.5079649471897E-01
65  6.4000000000000E-01 -5.0331434844000E-01  1.5257504298629E+00  8.1912694105917E-01
66  6.5000000000000E-01 -5.6177370846249E-01  1.5460906431940E+00  6.8312741179215E-01
67  6.6000000000000E-01 -6.1420315638229E-01  1.5626952851865E+00  5.4422697820026E-01
68  6.7000000000000E-01 -6.6043380955673E-01  1.5755382974392E+00  4.0382353436325E-01
69  6.8000000000000E-01 -7.0033385151761E-01  1.5846523620082E+00  2.6326800267407E-01
70  6.9000000000000E-01 -7.3381065162402E-01  1.5901243784954E+00  1.2385062772431E-01
71  7.0000000000000E-01 -7.6081317077938E-01  1.5920891372587E+00 -1.3210557568727E-02
72  7.1000000000000E-01 -7.8133453141774E-01  1.5907214364942E+00 -1.4677908093556E-01
73  7.2000000000000E-01 -7.9541460456942E-01  1.5862269520377E+00 -2.7580724847748E-01
74  7.3000000000000E-01 -8.0314244751965E-01  1.5788322187016E+00 -3.9934134397759E-01
75  7.4000000000000E-01 -8.0465841340675E-01  1.5687741187335E+00 -5.1652497283600E-01
76  7.5000000000000E-01 -8.0015574982798E-01  1.5562892949840E+00 -6.2660075341035E-01
77  7.6000000000000E-01 -7.8988150759181E-01  1.5416039125351E+00 -7.2891058682812E-01
78  7.7000000000000E-01 -7.7413659329942E-01  1.5249241824309E+00 -8.2289475265205E-01
79  7.8000000000000E-01 -7.5327482024630E-01  1.5064280349091E+00 -9.0809008212148E-01
80  7.9000000000000E-01 -7.2770084065068E-01  1.4862582879426E+00 -9.8412745354544E-01
81  8.0000000000000E-01 -6.9786687756113E-01  1.4645176013368E+00 -1.0507288367562E+00
82  8.1000000000000E-01 -6.6426821579336E-01  1.4412654390143E+00 -1.1077040867240E+00
83  8.2000000000000E-01 -6.2743745645542E-01  1.4165171848837E+00 -1.1549476522314E+00
84  8.3000000000000E-01 -5.8793758739409E-01  1.3902454736467E+00 -1.1924353259307E+00
85  8.4000000000000E-01 -5.4635397043039E-01  1.3623837101905E+00 -1.2202211193745E+00
86  8.5000000000000E-01 -5.0328539365664E-01  1.3328316631669E+00 -1.2384343030226E+00
87  8.6000000000000E-01 -4.5933438143503E-01  1.3014629333724E+00 -1.2472766090846E+00
88  8.7000000000000E-01 -4.1509699420668E-01  1.2681340189805E+00 -1.2470195565409E+00
89  8.8000000000000E-01 -3.7115238305234E-01  1.2326946307173E+00 -1.2380018247635E+00
90  8.9000000000000E-01 -3.2805238858816E-01  1.1949988536119E+00 -1.2206265765257E+00
91  9.0000000000000E-01 -2.8631148892020E-01  1.1549167105076E+00 -1.1953586141246E+00
92  9.1000000000000E-01 -2.4639740600717E-01  1.1123456581013E+00 -1.1627212447233E+00
93  9.2000000000000E-01 -2.0872267320742E-01  1.0672215403553E+00 -1.1232927332218E+00
94  9.3000000000000E-01 -1.7363744869824E-01  1.0195285375454E+00 -1.0777022328454E+00
95  9.4000000000000E-01 -1.4142382990932E-01  9.6930768217719E-01 -1.0266251045643E+00
96  9.5000000000000E-01 -1.1229188355017E-01  9.1666356506700E-01 -9.7077756524001E-01
97  9.6000000000000E-01 -8.6377555027493E-02  8.6176892497523E-01 -9.1091063942917E-01
98  9.7000000000000E-01 -6.3742561228618E-02  8.0486690155376E-01 -8.4780342896455E-01
99  9.8000000000000E-01 -4.4376303183704E-02  7.4627083189002E-01 -7.8225575539868E-01