Hs    ONCVPSP-4.0.1  r_core=   1.10501   1.10501   1.10501   1.20154
108.0000     48.0000      230613    zatom,zion,pspd
8      11   3     4   600     0    pspcod,pspxc,lmax,lloc,mmax,r2well
5.99000000  3.50000000  0.00000000    rchrg fchrg qchrg
3     3     2     2    nproj
3     1           extension_switch
3     3     3    nprojso
0                        -1.2967600795305E+01  1.1066682360132E+01 -2.8111675461115E-01
1  0.0000000000000E+00 -2.2832880031132E-10  1.3457341685452E-08 -3.5297796824318E-08
2  1.0000000000000E-02  7.0848599818387E-02  1.8164645381179E-01 -2.8261842074160E-02
3  2.0000000000000E-02  1.4156465896694E-01  3.6156751184717E-01 -5.5998357330036E-02
4  3.0000000000000E-02  2.1201576654049E-01  5.3805529885190E-01 -8.2697901654311E-02
5  4.0000000000000E-02  2.8206977240421E-01  7.0943686006360E-01 -1.0787603052992E-01
6  5.0000000000000E-02  3.5159492075365E-01  8.7409131575377E-01 -1.3108867230188E-01
7  6.0000000000000E-02  4.2045998768085E-01  1.0304666372197E+00 -1.5194475733324E-01
8  7.0000000000000E-02  4.8853442439025E-01  1.1770958997011E+00 -1.7011807177360E-01
9  8.0000000000000E-02  5.5568850793668E-01  1.3126128542397E+00 -1.8535806936452E-01
10  9.0000000000000E-02  6.2179350160026E-01  1.4357666463462E+00 -1.9749933931870E-01
11  1.0000000000000E-01  6.8672182724530E-01  1.5454354960286E+00 -2.0646939775196E-01
12  1.1000000000000E-01  7.5034725220569E-01  1.6406391428940E+00 -2.1229444947422E-01
13  1.2000000000000E-01  8.1254509337034E-01  1.7205498532639E+00 -2.1510276099451E-01
14  1.3000000000000E-01  8.7319244118479E-01  1.7845017850366E+00 -2.1512529858695E-01
15  1.4000000000000E-01  9.3216840621609E-01  1.8319985116494E+00 -2.1269332049429E-01
16  1.5000000000000E-01  9.8935439072960E-01  1.8627185199136E+00 -2.0823267184388E-01
17  1.6000000000000E-01  1.0446343873865E+00  1.8765185182896E+00 -2.0225461517525E-01
18  1.7000000000000E-01  1.0978953066836E+00  1.8734344224985E+00 -1.9534313755791E-01
19  1.8000000000000E-01  1.1490273341226E+00  1.8536799239084E+00 -1.8813880433646E-01
20  1.9000000000000E-01  1.1979243173271E+00  1.8176425920998E+00 -1.8131937516198E-01
21  2.0000000000000E-01  1.2444841824330E+00  1.7658775151615E+00 -1.7557755422469E-01
22  2.1000000000000E-01  1.2886093780889E+00  1.6990985379330E+00 -1.7159640629404E-01
23  2.2000000000000E-01  1.3302073443502E+00  1.6181672175900E+00 -1.7002312516780E-01
24  2.3000000000000E-01  1.3691910026579E+00  1.5240796753962E+00 -1.7144198274589E-01
25  2.4000000000000E-01  1.4054792620144E+00  1.4179515806957E+00 -1.7634740642558E-01
26  2.5000000000000E-01  1.4389975354310E+00  1.3010015558344E+00 -1.8511822148324E-01
27  2.6000000000000E-01  1.4696782597781E+00  1.1745333362822E+00 -1.9799414608953E-01
28  2.7000000000000E-01  1.4974614113476E+00  1.0399170566030E+00 -2.1505563346735E-01
29  2.8000000000000E-01  1.5222950087891E+00  8.9857005820783E-01 -2.3620811408687E-01
30  2.9000000000000E-01  1.5441355946235E+00  7.5193762757779E-01 -2.6117159845870E-01
31  3.0000000000000E-01  1.5629486863110E+00  6.0147407289544E-01 -2.8947645817623E-01
32  3.1000000000000E-01  1.5787091878580E+00  4.4862453240113E-01 -3.2046601202604E-01
33  3.2000000000000E-01  1.5914017532137E+00  2.9480787949251E-01 -3.5330631044042E-01
34  3.3000000000000E-01  1.6010210932198E+00  1.4140104844660E-01 -3.8700324293716E-01
35  3.4000000000000E-01  1.6075722186365E+00 -1.0274947924164E-02 -4.2042679934238E-01
36  3.5000000000000E-01  1.6110706127485E+00 -1.5896709940745E-01 -4.5234200820198E-01
37  3.6000000000000E-01  1.6115423282380E+00 -3.0350043812461E-01 -4.8144576794852E-01
38  3.7000000000000E-01  1.6090240043534E+00 -4.4278597000130E-01 -5.0640849199847E-01
39  3.8000000000000E-01  1.6035628018700E+00 -5.7582650565863E-01 -5.2591922213422E-01
40  3.9000000000000E-01  1.5952162548808E+00 -7.0172047101336E-01 -5.3873263893654E-01
41  4.0000000000000E-01  1.5840520400261E+00 -8.1966384542112E-01 -5.4371622619117E-01
42  4.1000000000000E-01  1.5701476653183E+00 -9.2895043473146E-01 -5.3989573889822E-01
43  4.2000000000000E-01  1.5535900821921E+00 -1.0289707355209E+00 -5.2649709012949E-01
44  4.3000000000000E-01  1.5344752257685E+00 -1.1192096828327E+00 -5.0298281608236E-01
45  4.4000000000000E-01  1.5129074895174E+00 -1.1992435953463E+00 -4.6908140352049E-01
46  4.5000000000000E-01  1.4889991415013E+00 -1.2687366380241E+00 -4.2480796816169E-01
47  4.6000000000000E-01  1.4628696901621E+00 -1.3274371126330E+00 -3.7047505161197E-01
48  4.7000000000000E-01  1.4346452081436E+00 -1.3751738615428E+00 -3.0669264973593E-01
49  4.8000000000000E-01  1.4044576229216E+00 -1.4118530309981E+00 -2.3435698516518E-01
50  4.9000000000000E-01  1.3724439830443E+00 -1.4374553884787E+00 -1.5462797626156E-01
51  5.0000000000000E-01  1.3387457085647E+00 -1.4520343272306E+00 -6.8895817165571E-02
52  5.1000000000000E-01  1.3035078338110E+00 -1.4557146225189E+00  2.1262450304558E-02
53  5.2000000000000E-01  1.2668782500017E+00 -1.4486919319472E+00  1.1413504204253E-01
54  5.3000000000000E-01  1.2290069544132E+00 -1.4312329598772E+00  2.0793446942084E-01
55  5.4000000000000E-01  1.1900453118876E+00 -1.4036761371990E+00  3.0086140578626E-01
56  5.5000000000000E-01  1.1501453334651E+00 -1.3664326060154E+00  3.9117099229510E-01
57  5.6000000000000E-01  1.1094589758949E+00 -1.3199872474913E+00  4.7723899615924E-01
58  5.7000000000000E-01  1.0681374647565E+00 -1.2648994530713E+00  5.5762513706600E-01
59  5.8000000000000E-01  1.0263306429598E+00 -1.2018033168067E+00  6.3113090862584E-01
60  5.9000000000000E-01  9.8418634552527E-01 -1.1314069212984E+00  6.9684934501635E-01
61  6.0000000000000E-01  9.4184980081019E-01 -1.0544904026240E+00  7.5420441768775E-01
62  6.1000000000000E-01  8.9946305776962E-01 -9.7190251062928E-01  8.0297808743148E-01
63  6.2000000000000E-01  8.5716443844357E-01 -8.8455542930175E-01  8.4332347291601E-01
64  6.3000000000000E-01  8.1508801465396E-01 -7.9341768597051E-01  8.7576311314956E-01
65  6.4000000000000E-01  7.7336310787881E-01 -6.9950505535226E-01  9.0117187945748E-01
66  6.5000000000000E-01  7.3211381144063E-01 -6.0386945186549E-01  9.2074471038977E-01
67  6.6000000000000E-01  6.9145853448350E-01 -5.0758589746200E-01  9.3594997595690E-01
68  6.7000000000000E-01  6.5150956769685E-01 -4.1173774836616E-01  9.4846989972681E-01
69  6.8000000000000E-01  6.1237267134202E-01 -3.1740045820163E-01  9.6013005210587E-01
70  6.9000000000000E-01  5.7414668681469E-01 -2.2562424261164E-01  9.7282044980609E-01
71  7.0000000000000E-01  5.3692317369254E-01 -1.3741608737153E-01  9.8841123108297E-01
72  7.1000000000000E-01  5.0078607493165E-01 -5.3721604213218E-02  1.0086662026705E+00
73  7.2000000000000E-01  4.6581141354510E-01  2.4592717273508E-02  1.0351577552157E+00
74  7.3000000000000E-01  4.3206702468305E-01  9.6756289954042E-02  1.0691867068412E+00
75  7.4000000000000E-01  3.9961232749898E-01  1.6210966930863E-01  1.1117105521175E+00
76  7.5000000000000E-01  3.6849814150009E-01  2.2011770405300E-01  1.1632833648752E+00
77  7.6000000000000E-01  3.3876655221559E-01  2.7038009440009E-01  1.2240102327424E+00
78  7.7000000000000E-01  3.1045083095859E-01  3.1263892419996E-01  1.2935185999708E+00
79  7.8000000000000E-01  2.8357541319428E-01  3.4678282265295E-01  1.3709482796130E+00
80  7.9000000000000E-01  2.5815593956051E-01  3.7284751808412E-01  1.4549611885131E+00
81  8.0000000000000E-01  2.3419936292321E-01  3.9101266650682E-01  1.5437710853008E+00
82  8.1000000000000E-01  2.1170412400541E-01  4.0159496679280E-01  1.6351927827005E+00
83  8.2000000000000E-01  1.9066039712878E-01  4.0503770709526E-01  1.7267094934165E+00
84  8.3000000000000E-01  1.7105040648067E-01  4.0189701831096E-01  1.8155561872012E+00
85  8.4000000000000E-01  1.5284881210346E-01  3.9282523432302E-01  1.8988161186983E+00
86  8.5000000000000E-01  1.3602316353605E-01  3.7855187016360E-01  1.9735270629907E+00
87  8.6000000000000E-01  1.2053441776041E-01  3.5986282311439E-01  2.0367932970428E+00
88  8.7000000000000E-01  1.0633751686113E-01  3.3757847375036E-01  2.0858990147963E+00
89  8.8000000000000E-01  9.3382019633551E-02  3.1253141046913E-01  2.1184186804703E+00
90  8.9000000000000E-01  8.1612780312251E-02  2.8554451955844E-01  2.1323198212532E+00
91  9.0000000000000E-01  7.0970666670436E-02  2.5741017187107E-01  2.1260539425917E+00
92  9.1000000000000E-01  6.1393308987986E-02  2.2887119643566E-01  2.0986316148484E+00
93  9.2000000000000E-01  5.2815870822356E-02  2.0060426180576E-01  2.0496783197747E+00
94  9.3000000000000E-01  4.5171832154656E-02  1.7320618984183E-01  1.9794683422659E+00
95  9.4000000000000E-01  3.8393775328496E-02  1.4718360728329E-01  1.8889348236352E+00
96  9.5000000000000E-01  3.2414164248893E-02  1.2294620229696E-01  1.7796550275487E+00
97  9.6000000000000E-01  2.7166107553271E-02  1.0080370144164E-01  1.6538108742795E+00
98  9.7000000000000E-01  2.2584096889821E-02  8.0966523144326E-02  1.5141258346040E+00
99  9.8000000000000E-01  1.8604712018964E-02  6.3549903091544E-02  1.3637803018225E+00
100  9.9000000000000E-01  1.5167285164839E-02  4.8581131559434E-02  1.2063085373132E+00
101  1.0000000000000E+00  1.2214517856900E-02  3.6009398947272E-02  1.0454811726777E+00
102  1.0100000000000E+00  9.6930443857837E-03  2.5717619732099E-02  8.8517801261370E-01
103  1.0200000000000E+00  7.5539369229116E-03  1.7535502017631E-02  7.2925648514175E-01
104  1.0300000000000E+00  5.7531499733540E-03  1.1253052169774E-02  5.8142150604621E-01
105  1.0400000000000E+00  4.2518845602062E-03  6.6336804973920E-03  4.4510270227821E-01
106  1.0500000000000E+00  3.0168382035452E-03  3.4259911323294E-03  3.2334513385746E-01
107  1.0600000000000E+00  2.0130624440535E-03  1.3879611457491E-03  2.1868962906930E-01
108  1.0700000000000E+00  1.2179322532066E-03  2.8403273758908E-04  1.3311396017714E-01
109  1.0800000000000E+00  6.2361841027791E-04 -1.4243648963042E-04  6.8073872247657E-02
110  1.0900000000000E+00  2.2621733056627E-04 -1.5676087546897E-04  2.4489886284189E-02
111  1.1000000000000E+00  2.6546166582435E-05 -3.0905196415474E-05  2.8299207794190E-03
112  1.1100000000000E+00 -1.1523550085535E-06  1.7101130193014E-06 -1.2174773676618E-04
113  1.1200000000000E+00 -8.9253280879030E-08  9.7113145856684E-08 -9.5676556457911E-06
114  1.13  0.  0.  0.
115  1.14  0.  0.  0.
116  1.15  0.  0.  0.
117  1.16  0.  0.  0.
118  1.17  0.  0.  0.
119  1.18  0.  0.  0.
120  1.19  0.  0.  0.
121  1.20  0.  0.  0.
122  1.21  0.  0.  0.
123  1.22  0.  0.  0.
124  1.23  0.  0.  0.
125  1.24  0.  0.  0.
126  1.25  0.  0.  0.
127  1.26  0.  0.  0.
128  1.27  0.  0.  0.
129  1.28  0.  0.  0.
130  1.29  0.  0.  0.
131  1.30  0.  0.  0.
132  1.31  0.  0.  0.
133  1.32  0.  0.  0.
134  1.33  0.  0.  0.
135  1.34  0.  0.  0.
136  1.35  0.  0.  0.
137  1.36  0.  0.  0.
138  1.37  0.  0.  0.
139  1.38  0.  0.  0.
140  1.39  0.  0.  0.
141  1.40  0.  0.  0.
142  1.41  0.  0.  0.
143  1.42  0.  0.  0.
144  1.43  0.  0.  0.
145  1.44  0.  0.  0.
146  1.45  0.  0.  0.
147  1.46  0.  0.  0.
148  1.47  0.  0.  0.
149  1.48  0.  0.  0.
150  1.49  0.  0.  0.
151  1.50  0.  0.  0.
152  1.51  0.  0.  0.
153  1.52  0.  0.  0.
154  1.53  0.  0.  0.
155  1.54  0.  0.  0.
156  1.55  0.  0.  0.
157  1.56  0.  0.  0.
158  1.57  0.  0.  0.
159  1.58  0.  0.  0.
160  1.59  0.  0.  0.
161  1.60  0.  0.  0.
162  1.61  0.  0.  0.
163  1.62  0.  0.  0.
164  1.63  0.  0.  0.
165  1.64  0.  0.  0.
166  1.65  0.  0.  0.
167  1.66  0.  0.  0.
168  1.67  0.  0.  0.
169  1.68  0.  0.  0.
170  1.69  0.  0.  0.
171  1.70  0.  0.  0.
172  1.71  0.  0.  0.
173  1.72  0.  0.  0.
174  1.73  0.  0.  0.
175  1.74  0.  0.  0.
176  1.75  0.  0.  0.
177  1.76  0.  0.  0.
178  1.77  0.  0.  0.
179  1.78  0.  0.  0.
180  1.79  0.  0.  0.
181  1.80  0.  0.  0.
182  1.81  0.  0.  0.
183  1.82  0.  0.  0.
184  1.83  0.  0.  0.
185  1.84  0.  0.  0.
186  1.85  0.  0.  0.
187  1.86  0.  0.  0.
188  1.87  0.  0.  0.
189  1.88  0.  0.  0.
190  1.89  0.  0.  0.
191  1.90  0.  0.  0.
192  1.91  0.  0.  0.
193  1.92  0.  0.  0.
194  1.93  0.  0.  0.
195  1.94  0.  0.  0.
196  1.95  0.  0.  0.
197  1.96  0.  0.  0.
198  1.97  0.  0.  0.
199  1.98  0.  0.  0.
200  1.99  0.  0.  0.
201  2.00  0.  0.  0.
202  2.01  0.  0.  0.
203  2.02  0.  0.  0.
204  2.03  0.  0.  0.
205  2.04  0.  0.  0.
206  2.05  0.  0.  0.
207  2.06  0.  0.  0.
208  2.07  0.  0.  0.
209  2.08  0.  0.  0.
210  2.09  0.  0.  0.
211  2.10  0.  0.  0.
212  2.11  0.  0.  0.
213  2.12  0.  0.  0.
214  2.13  0.  0.  0.
215  2.14  0.  0.  0.
216  2.15  0.  0.  0.
217  2.16  0.  0.  0.
218  2.17  0.  0.  0.
219  2.18  0.  0.  0.
220  2.19  0.  0.  0.
221  2.20  0.  0.  0.
222  2.21  0.  0.  0.
223  2.22  0.  0.  0.
224  2.23  0.  0.  0.
225  2.24  0.  0.  0.
226  2.25  0.  0.  0.
227  2.26  0.  0.  0.
228  2.27  0.  0.  0.
229  2.28  0.  0.  0.
230  2.29  0.  0.  0.
231  2.30  0.  0.  0.
232  2.31  0.  0.  0.
233  2.32  0.  0.  0.
234  2.33  0.  0.  0.
235  2.34  0.  0.  0.
236  2.35  0.  0.  0.
237  2.36  0.  0.  0.
238  2.37  0.  0.  0.
239  2.38  0.  0.  0.
240  2.39  0.  0.  0.
241  2.40  0.  0.  0.
242  2.41  0.  0.  0.
243  2.42  0.  0.  0.
244  2.43  0.  0.  0.
245  2.44  0.  0.  0.
246  2.45  0.  0.  0.
247  2.46  0.  0.  0.
248  2.47  0.  0.  0.
249  2.48  0.  0.  0.
250  2.49  0.  0.  0.
251  2.50  0.  0.  0.
252  2.51  0.  0.  0.
253  2.52  0.  0.  0.
254  2.53  0.  0.  0.
255  2.54  0.  0.  0.
256  2.55  0.  0.  0.
257  2.56  0.  0.  0.
258  2.57  0.  0.  0.
259  2.58  0.  0.  0.
260  2.59  0.  0.  0.
261  2.60  0.  0.  0.
262  2.61  0.  0.  0.
263  2.62  0.  0.  0.
264  2.63  0.  0.  0.
265  2.64  0.  0.  0.
266  2.65  0.  0.  0.
267  2.66  0.  0.  0.
268  2.67  0.  0.  0.
269  2.68  0.  0.  0.
270  2.69  0.  0.  0.
271  2.70  0.  0.  0.
272  2.71  0.  0.  0.
273  2.72  0.  0.  0.
274  2.73  0.  0.  0.
275  2.74  0.  0.  0.
276  2.75  0.  0.  0.
277  2.76  0.  0.  0.
278  2.77  0.  0.  0.
279  2.78  0.  0.  0.
280  2.79  0.  0.  0.
281  2.80  0.  0.  0.
282  2.81  0.  0.  0.
283  2.82  0.  0.  0.
284  2.83  0.  0.  0.
285  2.84  0.  0.  0.
286  2.85  0.  0.  0.
287  2.86  0.  0.  0.
288  2.87  0.  0.  0.
289  2.88  0.  0.  0.
290  2.89  0.  0.  0.
291  2.90  0.  0.  0.
292  2.91  0.  0.  0.
293  2.92  0.  0.  0.
294  2.93  0.  0.  0.
295  2.94  0.  0.  0.
296  2.95  0.  0.  0.
297  2.96  0.  0.  0.
298  2.97  0.  0.  0.
299  2.98  0.  0.  0.
300  2.99  0.  0.  0.
301  3.00  0.  0.  0.
302  3.01  0.  0.  0.
303  3.02  0.  0.  0.
304  3.03  0.  0.  0.
305  3.04  0.  0.  0.
306  3.05  0.  0.  0.
307  3.06  0.  0.  0.
308  3.07  0.  0.  0.
309  3.08  0.  0.  0.
310  3.09  0.  0.  0.
311  3.10  0.  0.  0.
312  3.11  0.  0.  0.
313  3.12  0.  0.  0.
314  3.13  0.  0.  0.
315  3.14  0.  0.  0.
316  3.15  0.  0.  0.
317  3.16  0.  0.  0.
318  3.17  0.  0.  0.
319  3.18  0.  0.  0.
320  3.19  0.  0.  0.
321  3.20  0.  0.  0.
322  3.21  0.  0.  0.
323  3.22  0.  0.  0.
324  3.23  0.  0.  0.
325  3.24  0.  0.  0.
326  3.25  0.  0.  0.
327  3.26  0.  0.  0.
328  3.27  0.  0.  0.
329  3.28  0.  0.  0.
330  3.29  0.  0.  0.
331  3.30  0.  0.  0.
332  3.31  0.  0.  0.
333  3.32  0.  0.  0.
334  3.33  0.  0.  0.
335  3.34  0.  0.  0.
336  3.35  0.  0.  0.
337  3.36  0.  0.  0.
338  3.37  0.  0.  0.
339  3.38  0.  0.  0.
340  3.39  0.  0.  0.
341  3.40  0.  0.  0.
342  3.41  0.  0.  0.
343  3.42  0.  0.  0.
344  3.43  0.  0.  0.
345  3.44  0.  0.  0.
346  3.45  0.  0.  0.
347  3.46  0.  0.  0.
348  3.47  0.  0.  0.
349  3.48  0.  0.  0.
350  3.49  0.  0.  0.
351  3.50  0.  0.  0.
352  3.51  0.  0.  0.
353  3.52  0.  0.  0.
354  3.53  0.  0.  0.
355  3.54  0.  0.  0.
356  3.55  0.  0.  0.
357  3.56  0.  0.  0.
358  3.57  0.  0.  0.
359  3.58  0.  0.  0.
360  3.59  0.  0.  0.
361  3.60  0.  0.  0.
362  3.61  0.  0.  0.
363  3.62  0.  0.  0.
364  3.63  0.  0.  0.
365  3.64  0.  0.  0.
366  3.65  0.  0.  0.
367  3.66  0.  0.  0.
368  3.67  0.  0.  0.
369  3.68  0.  0.  0.
370  3.69  0.  0.  0.
371  3.70  0.  0.  0.
372  3.71  0.  0.  0.
373  3.72  0.  0.  0.
374  3.73  0.  0.  0.
375  3.74  0.  0.  0.
376  3.75  0.  0.  0.
377  3.76  0.  0.  0.
378  3.77  0.  0.  0.
379  3.78  0.  0.  0.
380  3.79  0.  0.  0.
381  3.80  0.  0.  0.
382  3.81  0.  0.  0.
383  3.82  0.  0.  0.
384  3.83  0.  0.  0.
385  3.84  0.  0.  0.
386  3.85  0.  0.  0.
387  3.86  0.  0.  0.
388  3.87  0.  0.  0.
389  3.88  0.  0.  0.
390  3.89  0.  0.  0.
391  3.90  0.  0.  0.
392  3.91  0.  0.  0.
393  3.92  0.  0.  0.
394  3.93  0.  0.  0.
395  3.94  0.  0.  0.
396  3.95  0.  0.  0.
397  3.96  0.  0.  0.
398  3.97  0.  0.  0.
399  3.98  0.  0.  0.
400  3.99  0.  0.  0.
401  4.00  0.  0.  0.
402  4.01  0.  0.  0.
403  4.02  0.  0.  0.
404  4.03  0.  0.  0.
405  4.04  0.  0.  0.
406  4.05  0.  0.  0.
407  4.06  0.  0.  0.
408  4.07  0.  0.  0.
409  4.08  0.  0.  0.
410  4.09  0.  0.  0.
411  4.10  0.  0.  0.
412  4.11  0.  0.  0.
413  4.12  0.  0.  0.
414  4.13  0.  0.  0.
415  4.14  0.  0.  0.
416  4.15  0.  0.  0.
417  4.16  0.  0.  0.
418  4.17  0.  0.  0.
419  4.18  0.  0.  0.
420  4.19  0.  0.  0.
421  4.20  0.  0.  0.
422  4.21  0.  0.  0.
423  4.22  0.  0.  0.
424  4.23  0.  0.  0.
425  4.24  0.  0.  0.
426  4.25  0.  0.  0.
427  4.26  0.  0.  0.
428  4.27  0.  0.  0.
429  4.28  0.  0.  0.
430  4.29  0.  0.  0.
431  4.30  0.  0.  0.
432  4.31  0.  0.  0.
433  4.32  0.  0.  0.
434  4.33  0.  0.  0.
435  4.34  0.  0.  0.
436  4.35  0.  0.  0.
437  4.36  0.  0.  0.
438  4.37  0.  0.  0.
439  4.38  0.  0.  0.
440  4.39  0.  0.  0.
441  4.40  0.  0.  0.
442  4.41  0.  0.  0.
443  4.42  0.  0.  0.
444  4.43  0.  0.  0.
445  4.44  0.  0.  0.
446  4.45  0.  0.  0.
447  4.46  0.  0.  0.
448  4.47  0.  0.  0.
449  4.48  0.  0.  0.
450  4.49  0.  0.  0.
451  4.50  0.  0.  0.
452  4.51  0.  0.  0.
453  4.52  0.  0.  0.
454  4.53  0.  0.  0.
455  4.54  0.  0.  0.
456  4.55  0.  0.  0.
457  4.56  0.  0.  0.
458  4.57  0.  0.  0.
459  4.58  0.  0.  0.
460  4.59  0.  0.  0.
461  4.60  0.  0.  0.
462  4.61  0.  0.  0.
463  4.62  0.  0.  0.
464  4.63  0.  0.  0.
465  4.64  0.  0.  0.
466  4.65  0.  0.  0.
467  4.66  0.  0.  0.
468  4.67  0.  0.  0.
469  4.68  0.  0.  0.
470  4.69  0.  0.  0.
471  4.70  0.  0.  0.
472  4.71  0.  0.  0.
473  4.72  0.  0.  0.
474  4.73  0.  0.  0.
475  4.74  0.  0.  0.
476  4.75  0.  0.  0.
477  4.76  0.  0.  0.
478  4.77  0.  0.  0.
479  4.78  0.  0.  0.
480  4.79  0.  0.  0.
481  4.80  0.  0.  0.
482  4.81  0.  0.  0.
483  4.82  0.  0.  0.
484  4.83  0.  0.  0.
485  4.84  0.  0.  0.
486  4.85  0.  0.  0.
487  4.86  0.  0.  0.
488  4.87  0.  0.  0.
489  4.88  0.  0.  0.
490  4.89  0.  0.  0.
491  4.90  0.  0.  0.
492  4.91  0.  0.  0.
493  4.92  0.  0.  0.
494  4.93  0.  0.  0.
495  4.94  0.  0.  0.
496  4.95  0.  0.  0.
497  4.96  0.  0.  0.
498  4.97  0.  0.  0.
499  4.98  0.  0.  0.
500  4.99  0.  0.  0.
501  5.00  0.  0.  0.
502  5.01  0.  0.  0.
503  5.02  0.  0.  0.
504  5.03  0.  0.  0.
505  5.04  0.  0.  0.
506  5.05  0.  0.  0.
507  5.06  0.  0.  0.
508  5.07  0.  0.  0.
509  5.08  0.  0.  0.
510  5.09  0.  0.  0.
511  5.10  0.  0.  0.
512  5.11  0.  0.  0.
513  5.12  0.  0.  0.
514  5.13  0.  0.  0.
515  5.14  0.  0.  0.
516  5.15  0.  0.  0.
517  5.16  0.  0.  0.
518  5.17  0.  0.  0.
519  5.18  0.  0.  0.
520  5.19  0.  0.  0.
521  5.20  0.  0.  0.
522  5.21  0.  0.  0.
523  5.22  0.  0.  0.
524  5.23  0.  0.  0.
525  5.24  0.  0.  0.
526  5.25  0.  0.  0.
527  5.26  0.  0.  0.
528  5.27  0.  0.  0.
529  5.28  0.  0.  0.
530  5.29  0.  0.  0.
531  5.30  0.  0.  0.
532  5.31  0.  0.  0.
533  5.32  0.  0.  0.
534  5.33  0.  0.  0.
535  5.34  0.  0.  0.
536  5.35  0.  0.  0.
537  5.36  0.  0.  0.
538  5.37  0.  0.  0.
539  5.38  0.  0.  0.
540  5.39  0.  0.  0.
541  5.40  0.  0.  0.
542  5.41  0.  0.  0.
543  5.42  0.  0.  0.
544  5.43  0.  0.  0.
545  5.44  0.  0.  0.
546  5.45  0.  0.  0.
547  5.46  0.  0.  0.
548  5.47  0.  0.  0.
549  5.48  0.  0.  0.
550  5.49  0.  0.  0.
551  5.50  0.  0.  0.
552  5.51  0.  0.  0.
553  5.52  0.  0.  0.
554  5.53  0.  0.  0.
555  5.54  0.  0.  0.
556  5.55  0.  0.  0.
557  5.56  0.  0.  0.
558  5.57  0.  0.  0.
559  5.58  0.  0.  0.
560  5.59  0.  0.  0.
561  5.60  0.  0.  0.
562  5.61  0.  0.  0.
563  5.62  0.  0.  0.
564  5.63  0.  0.  0.
565  5.64  0.  0.  0.
566  5.65  0.  0.  0.
567  5.66  0.  0.  0.
568  5.67  0.  0.  0.
569  5.68  0.  0.  0.
570  5.69  0.  0.  0.
571  5.70  0.  0.  0.
572  5.71  0.  0.  0.
573  5.72  0.  0.  0.
574  5.73  0.  0.  0.
575  5.74  0.  0.  0.
576  5.75  0.  0.  0.
577  5.76  0.  0.  0.
578  5.77  0.  0.  0.
579  5.78  0.  0.  0.
580  5.79  0.  0.  0.
581  5.80  0.  0.  0.
582  5.81  0.  0.  0.
583  5.82  0.  0.  0.
584  5.83  0.  0.  0.
585  5.84  0.  0.  0.
586  5.85  0.  0.  0.
587  5.86  0.  0.  0.
588  5.87  0.  0.  0.
589  5.88  0.  0.  0.
590  5.89  0.  0.  0.
591  5.90  0.  0.  0.
592  5.91  0.  0.  0.
593  5.92  0.  0.  0.
594  5.93  0.  0.  0.
595  5.94  0.  0.  0.
596  5.95  0.  0.  0.
597  5.96  0.  0.  0.
598  5.97  0.  0.  0.
599  5.98  0.  0.  0.
600  5.99  0.  0.  0.
1                        -1.1884128816675E+01 -2.2465008549511E+00 -7.2339917994523E-01
1  0.0000000000000E+00  4.1982478327096E-09  2.8631927939671E-08  4.7050448953589E-09
2  1.0000000000000E-02  3.0603622600800E-03  6.8940641986061E-03  2.1448492888926E-03
3  2.0000000000000E-02  1.2218085131602E-02  2.7470707471310E-02  8.5316035734793E-03
4  3.0000000000000E-02  2.7403291382077E-02  6.1414677778666E-02  1.9017511497796E-02
5  4.0000000000000E-02  4.8500231629949E-02  1.0820519480573E-01  3.3366754520858E-02
6  5.0000000000000E-02  7.5348345307607E-02  1.6712286272498E-01  5.1253605316896E-02
7  6.0000000000000E-02  1.0774373001190E-01  2.3725925384236E-01  7.2266862906169E-02
8  7.0000000000000E-02  1.4544100346298E-01  3.1752906781306E-01  9.5915572717863E-02
9  8.0000000000000E-02  1.8815553809423E-01  4.0668474248169E-01  1.2163603508155E-01
10  9.0000000000000E-02  2.3556604432608E-01  5.0333336299131E-01  1.4880009622550E-01
11  1.0000000000000E-01  2.8731747488280E-01  6.0595568572748E-01  1.7672470128376E-01
12  1.1000000000000E-01  3.4302421913533E-01  7.1292706317101E-01  2.0468266894853E-01
13  1.2000000000000E-01  4.0227355343831E-01  8.2254002523296E-01  2.3191462245870E-01
14  1.3000000000000E-01  4.6462931081028E-01  9.3302824268989E-01  2.5764198212984E-01
15  1.4000000000000E-01  5.2963573111700E-01  1.0425915696153E+00  2.8108089147508E-01
16  1.5000000000000E-01  5.9682145118605E-01  1.1494218350182E+00  3.0145691330121E-01
17  1.6000000000000E-01  6.6570359303002E-01  1.2517290301416E+00  3.1802029540084E-01
18  1.7000000000000E-01  7.3579190760135E-01  1.3477675179881E+00  3.3006156920325E-01
19  1.8000000000000E-01  8.0659293125757E-01  1.4358618765803E+00  3.3692721071892E-01
20  1.9000000000000E-01  8.7761411238304E-01  1.5144319781538E+00  3.3803506308947E-01
21  2.0000000000000E-01  9.4836786639232E-01  1.5820169037772E+00  3.3288919577424E-01
22  2.1000000000000E-01  1.0183755186207E+00  1.6372972975136E+00  3.2109385849122E-01
23  2.2000000000000E-01  1.0871710963726E+00  1.6791157767606E+00  3.0236617991102E-01
24  2.3000000000000E-01  1.1543049336267E+00  1.7064950361888E+00  2.7654726294025E-01
25  2.4000000000000E-01  1.2193470545554E+00  1.7186533118837E+00  2.4361134105286E-01
26  2.5000000000000E-01  1.2818903050694E+00  1.7150169097600E+00  2.0367268398201E-01
27  2.6000000000000E-01  1.3415532050075E+00  1.6952295476757E+00  1.5698997619792E-01
28  2.7000000000000E-01  1.3979824972970E+00  1.6591583132674E+00  1.0396793755750E-01
29  2.8000000000000E-01  1.4508553743722E+00  1.6068960984244E+00  4.5156011465935E-02
30  2.9000000000000E-01  1.4998813662917E+00  1.5387604353529E+00 -1.8755989438258E-02
31  3.0000000000000E-01  1.5448038792754E+00  1.4552887269461E+00 -8.6945318342751E-02
32  3.1000000000000E-01  1.5854013777389E+00  1.3572299340997E+00 -1.5846677157449E-01
33  3.2000000000000E-01  1.6214882072598E+00  1.2455328529677E+00 -2.3226609015694E-01
34  3.3000000000000E-01  1.6529150602097E+00  1.1213311841489E+00 -3.0719608780531E-01
35  3.4000000000000E-01  1.6795690899674E+00  9.8592566158273E-01 -3.8203523006164E-01
36  3.5000000000000E-01  1.7013736836245E+00  8.4076356972961E-01 -4.5550831668470E-01
37  3.6000000000000E-01  1.7182879068593E+00  6.8741603169838E-01 -5.2630885424083E-01
38  3.7000000000000E-01  1.7303056381251E+00  5.2755349681450E-01 -5.9312265042773E-01
39  3.8000000000000E-01  1.7374544124399E+00  3.6291989234993E-01 -6.5465211806675E-01
40  3.9000000000000E-01  1.7397939978249E+00  1.9530592967175E-01 -7.0964074663433E-01
41  4.0000000000000E-01  1.7374147297988E+00  2.6522069121925E-02 -7.5689718395747E-01
42  4.1000000000000E-01  1.7304356312585E+00 -1.4162834994257E-01 -7.9531837108525E-01
43  4.2000000000000E-01  1.7190023465532E+00 -3.0737531745268E-01 -8.2391118966182E-01
44  4.3000000000000E-01  1.7032849195788E+00 -4.6900722450562E-01 -8.4181211312656E-01
45  4.4000000000000E-01  1.6834754462861E+00 -6.2489435697405E-01 -8.4830439998047E-01
46  4.5000000000000E-01  1.6597856321076E+00 -7.7351041217218E-01 -8.4283242788987E-01
47  4.6000000000000E-01  1.6324442844953E+00 -9.1345169207187E-01 -8.2501283978863E-01
48  4.7000000000000E-01  1.6016947700360E+00 -1.0434536861976E+00 -7.9464225519962E-01
49  4.8000000000000E-01  1.5677924645081E+00 -1.1624048226910E+00 -7.5170138920070E-01
50  4.9000000000000E-01  1.5310022227975E+00 -1.2693572352096E+00 -6.9635551502254E-01
51  5.0000000000000E-01  1.4915958938472E+00 -1.3635344642985E+00 -6.2895130123899E-01
52  5.1000000000000E-01  1.4498499038072E+00 -1.4443360826048E+00 -5.5001014789344E-01
53  5.2000000000000E-01  1.4060429283414E+00 -1.5113393017713E+00 -4.6021823474083E-01
54  5.3000000000000E-01  1.3604536726737E+00 -1.5642976831455E+00 -3.6041357627740E-01
55  5.4000000000000E-01  1.3133587754712E+00 -1.6031371328125E+00 -2.5157044982982E-01
56  5.5000000000000E-01  1.2650308501152E+00 -1.6279494123861E+00 -1.3478162248543E-01
57  5.6000000000000E-01  1.2157366743507E+00 -1.6389834392147E+00 -1.1238848286810E-02
58  5.7000000000000E-01  1.1657355367729E+00 -1.6366346822259E+00  1.1778786240173E-01
59  5.8000000000000E-01  1.1152777461486E+00 -1.6214329819501E+00  2.5097168487662E-01
60  5.9000000000000E-01  1.0646033072196E+00 -1.5940291350799E+00  3.8695061848691E-01
61  6.0000000000000E-01  1.0139407644228E+00 -1.5551805853395E+00  5.2434882377664E-01
62  6.1000000000000E-01  9.6350621291678E-01 -1.5057365539434E+00  6.6179719282647E-01
63  6.2000000000000E-01  9.1350247445026E-01 -1.4466229252853E+00  7.9795273274066E-01
64  6.3000000000000E-01  8.6411843395752E-01 -1.3788271778201E+00  9.3151639922604E-01
65  6.4000000000000E-01  8.1552853132786E-01 -1.3033836177241E+00  1.0612490834276E+00
66  6.5000000000000E-01  7.6789240158168E-01 -1.2213591353659E+00  1.1859855280408E+00
67  6.6000000000000E-01  7.2135465568746E-01 -1.1338396635885E+00  1.3046460254234E+00
68  6.7000000000000E-01  6.7604479347004E-01 -1.0419174740224E+00  1.4162458280903E+00
69  6.8000000000000E-01  6.3207723948124E-01 -9.4667940488308E-01  1.5199022777174E+00
70  6.9000000000000E-01  5.8955149231530E-01 -8.4919607264706E-01  1.6148397298324E+00
71  7.0000000000000E-01  5.4855237763792E-01 -7.5051208221086E-01  1.7003924152039E+00
72  7.1000000000000E-01  5.0915039514107E-01 -6.5163721699787E-01  1.7760054333152E+00
73  7.2000000000000E-01  4.7140214971514E-01 -5.5353856313665E-01  1.8412341164156E+00
74  7.3000000000000E-01  4.3535085732550E-01 -4.5713350114899E-01  1.8957420331196E+00
75  7.4000000000000E-01  4.0102691637119E-01 -3.6328348511249E-01  1.9392979175434E+00
76  7.5000000000000E-01  3.6844853566747E-01 -2.7278852321843E-01  1.9717718132488E+00
77  7.6000000000000E-01  3.3762241061337E-01 -1.8638227491838E-01  1.9931307110917E+00
78  7.7000000000000E-01  3.0854443956047E-01 -1.0472768799093E-01  2.0034339372745E+00
79  7.8000000000000E-01  2.8120047287474E-01 -2.8413113111862E-02  2.0028285138316E+00
80  7.9000000000000E-01  2.5556708766405E-01  4.2051147162583E-02  1.9915446702502E+00
81  8.0000000000000E-01  2.3161238161906E-01  1.0623587495276E-01  1.9698916341404E+00
82  8.1000000000000E-01  2.0929677987395E-01  1.6379555360948E-01  1.9382537733393E+00
83  8.2000000000000E-01  1.8857384922968E-01  2.1447053242962E-01  1.8970871042600E+00
84  8.3000000000000E-01  1.6939111449050E-01  2.5808868223275E-01  1.8469161244970E+00
85  8.4000000000000E-01  1.5169087204226E-01  2.9456646145898E-01  1.7883308744403E+00
86  8.5000000000000E-01  1.3541099614709E-01  3.2390929335421E-01  1.7219840856000E+00
87  8.6000000000000E-01  1.2048573374509E-01  3.4621114102102E-01  1.6485882348883E+00
88  8.7000000000000E-01  1.0684648384089E-01  3.6165315978198E-01  1.5689122963156E+00
89  8.8000000000000E-01  9.4422557815215E-02  3.7050130630805E-01  1.4837779660529E+00
90  8.9000000000000E-01  8.3141917242704E-02  3.7310279187682E-01  1.3940551347038E+00
91  9.0000000000000E-01  7.2931886020971E-02  3.6988128317289E-01  1.3006563924818E+00
92  9.1000000000000E-01  6.3719833826961E-02  3.6133077808975E-01  1.2045303787522E+00
93  9.2000000000000E-01  5.5433828118941E-02  3.4800811554385E-01  1.1066538264482E+00
94  9.3000000000000E-01  4.8003252099532E-02  3.3052411651288E-01  1.0080222029741E+00
95  9.4000000000000E-01  4.1359386250182E-02  3.0953339718585E-01  9.0963891060321E-01
96  9.5000000000000E-01  3.5435951242670E-02  2.8572294279267E-01  8.1250307881314E-01
97  9.6000000000000E-01  3.0169610230199E-02  2.5979958066675E-01  7.1759605582862E-01
98  9.7000000000000E-01  2.5500428720052E-02  2.3247654149538E-01  6.2586678388425E-01
99  9.8000000000000E-01  2.1372290431883E-02  2.0445934658271E-01  5.3821631929576E-01
100  9.9000000000000E-01  1.7733267749580E-02  1.7643130424400E-01  4.5548183106200E-01
101  1.0000000000000E+00  1.4535945579256E-02  1.4903893825035E-01  3.7842047732525E-01
102  1.0100000000000E+00  1.1737697629467E-02  1.2287770371861E-01  3.0769361461799E-01