Db    ONCVPSP-4.0.1  r_core=   1.10309   1.20665   1.20665   1.20665
105.0000     45.0000      230612    zatom,zion,pspd
8      11   3     4   600     0    pspcod,pspxc,lmax,lloc,mmax,r2well
5.99000000  3.50000000  0.00000000    rchrg fchrg qchrg
3     3     2     2    nproj
3     1           extension_switch
3     3     3    nprojso
0                         2.2603985660704E+01 -9.5232001441975E+00 -3.0405185345841E-01
1  0.0000000000000E+00 -2.9339107143755E-08 -3.9347991531713E-10  1.3608440652124E-07
2  1.0000000000000E-02  2.1332544952065E-01  4.5495103346100E-02 -8.9245891988007E-02
3  2.0000000000000E-02  4.2448233277071E-01  9.1023253974535E-02 -1.7656947976448E-01
4  3.0000000000000E-02  6.3132942310289E-01  1.3661656008170E-01 -2.6009631033754E-01
5  4.0000000000000E-02  8.3177975449038E-01  1.8230525764344E-01 -3.3804635583470E-01
6  5.0000000000000E-02  1.0238267130338E+00  2.2811678930025E-01 -4.0877806958831E-01
7  6.0000000000000E-02  1.2055689034639E+00  2.7407490155750E-01 -4.7082875641817E-01
8  7.0000000000000E-02  1.3752334177234E+00  3.2019876691698E-01 -5.2295019506006E-01
9  8.0000000000000E-02  1.5311971620476E+00  3.6650213794937E-01 -5.6413858677303E-01
10  9.0000000000000E-02  1.6720059343990E+00  4.1299254075555E-01 -5.9365806617907E-01
11  1.0000000000000E-01  1.7963909848559E+00  4.5967051571486E-01 -6.1105719336366E-01
12  1.1000000000000E-01  1.9032828367239E+00  5.0652891384491E-01 -6.1617804456056E-01
13  1.2000000000000E-01  1.9918221947645E+00  5.5355225746244E-01 -6.0915772632476E-01
14  1.3000000000000E-01  2.0613678179602E+00  6.0071617410013E-01 -5.9042234865323E-01
15  1.4000000000000E-01  2.1115012866118E+00  6.4798691276329E-01 -5.6067369971421E-01
16  1.5000000000000E-01  2.1420286461861E+00  6.9532095156936E-01 -5.2086906252630E-01
17  1.6000000000000E-01  2.1529789621532E+00  7.4266470557279E-01 -4.7219479627495E-01
18  1.7000000000000E-01  2.1445998700449E+00  7.8995434311529E-01 -4.1603446671496E-01
19  1.8000000000000E-01  2.1173502521723E+00  8.3711571833910E-01 -3.5393244671983E-01
20  1.9000000000000E-01  2.0718902160033E+00  8.8406442655187E-01 -2.8755401580383E-01
21  2.0000000000000E-01  2.0090685883538E+00  9.3070598793519E-01 -2.1864306361345E-01
22  2.1000000000000E-01  1.9299081736596E+00  9.7693616365365E-01 -1.4897854523233E-01
23  2.2000000000000E-01  1.8355890531616E+00  1.0226414067670E+00 -8.0330845040782E-02
24  2.3000000000000E-01  1.7274302244985E+00  1.0676994484992E+00 -1.4419181234327E-02
25  2.4000000000000E-01  1.6068698977380E+00  1.1119800184114E+00  4.7128873572507E-02
26  2.5000000000000E-01  1.4754447742234E+00  1.1553456949014E+00  1.0281476650261E-01
27  2.6000000000000E-01  1.3347686388275E+00  1.1976528802583E+00  1.5130235667316E-01
28  2.7000000000000E-01  1.1865105944997E+00  1.2387528922906E+00  1.9144658355899E-01
29  2.8000000000000E-01  1.0323732606790E+00  1.2784931623705E+00  2.2231682151819E-01
30  2.9000000000000E-01  8.7407124465535E-01  1.3167185276577E+00  2.4321449489962E-01
31  3.0000000000000E-01  7.1331017781423E-01  1.3532726033325E+00  2.5368469933242E-01
32  3.1000000000000E-01  5.5176658748510E-01  1.3879992189380E+00  2.5352174735373E-01
33  3.2000000000000E-01  3.9106885047357E-01  1.4207439014480E+00  2.4276872503918E-01
34  3.3000000000000E-01  2.3277944697517E-01  1.4513553864910E+00  2.2171130565267E-01
35  3.4000000000000E-01  7.8378704129890E-02  1.4796871382956E+00  1.9086621187721E-01
36  3.5000000000000E-01 -7.0749812325486E-02  1.5055988584237E+00  1.5096484582905E-01
37  3.6000000000000E-01 -2.1333213135318E-01  1.5289579632184E+00  1.0293271246226E-01
38  3.7000000000000E-01 -3.4821483947818E-01  1.5496410101477E+00  4.7865344567066E-02
39  3.8000000000000E-01 -4.7437410890861E-01  1.5675350538494E+00 -1.2998505291781E-02
40  3.9000000000000E-01 -5.9092275664911E-01  1.5825389136763E+00 -7.8305609639697E-02
41  4.0000000000000E-01 -6.9711532892718E-01  1.5945643358772E+00 -1.4661814664668E-01
42  4.1000000000000E-01 -7.9235123200245E-01  1.6035370351966E+00 -2.1644393542970E-01
43  4.2000000000000E-01 -8.7617595505668E-01  1.6093976025948E+00 -2.8626628846848E-01
44  4.3000000000000E-01 -9.4828045315670E-01  1.6121022679342E+00 -3.5457280736253E-01
45  4.4000000000000E-01 -1.0084987781088E+00  1.6116235087920E+00 -4.1988252931504E-01
46  4.5000000000000E-01 -1.0568040623188E+00  1.6079504989919E+00 -4.8077092645721E-01
47  4.6000000000000E-01 -1.0933029755367E+00  1.6010893929321E+00 -5.3589236436220E-01
48  4.7000000000000E-01 -1.1182287866526E+00  1.5910634442760E+00 -5.8399973554235E-01
49  4.8000000000000E-01 -1.1319331726300E+00  1.5779129599961E+00 -6.2396109410419E-01
50  4.9000000000000E-01 -1.1348769243392E+00  1.5616950930738E+00 -6.5477322484593E-01
51  5.0000000000000E-01 -1.1276197046572E+00  1.5424834793099E+00 -6.7557218007140E-01
52  5.1000000000000E-01 -1.1108090179016E+00  1.5203677256425E+00 -6.8564090673273E-01
53  5.2000000000000E-01 -1.0851685516357E+00  1.4954527590717E+00 -6.8441416231638E-01
54  5.3000000000000E-01 -1.0514860523021E+00  1.4678580467261E+00 -6.7148097782296E-01
55  5.4000000000000E-01 -1.0106008951541E+00  1.4377166987528E+00 -6.4658496870246E-01
56  5.5000000000000E-01 -9.6339150670454E-01  1.4051744665684E+00 -6.0962281887035E-01
57  5.6000000000000E-01 -9.1076279450661E-01  1.3703886495654E+00 -5.6064126890942E-01
58  5.7000000000000E-01 -8.5363373459789E-01  1.3335269236528E+00 -4.9983292801438E-01
59  5.8000000000000E-01 -7.9292526144231E-01  1.2947661050169E+00 -4.2753120161983E-01
60  5.9000000000000E-01 -7.2954859871055E-01  1.2542908622737E+00 -3.4420458511210E-01
61  6.0000000000000E-01 -6.6439416175890E-01  1.2122923897532E+00 -2.5045052128324E-01
62  6.1000000000000E-01 -5.9832115418088E-01  1.1689670540702E+00 -1.4698895840820E-01
63  6.2000000000000E-01 -5.3214797128801E-01  1.1245150254210E+00 -3.4655680528155E-02
64  6.3000000000000E-01 -4.6664351279341E-01  1.0791389042559E+00  8.5604584609747E-02
65  6.4000000000000E-01 -4.0251949529398E-01  1.0330423531499E+00  2.1274533773873E-01
66  6.5000000000000E-01 -3.4042384235691E-01  9.8642874287703E-01  3.4562587490518E-01
67  6.6000000000000E-01 -2.8093521611389E-01  9.3949982092094E-01  4.8301941034966E-01
68  6.7000000000000E-01 -2.2455873928517E-01  8.9245440996473E-01  6.2362195097598E-01
69  6.8000000000000E-01 -1.7172294055572E-01  8.4548714332085E-01  7.6606213691022E-01
70  6.9000000000000E-01 -1.2277793931911E-01  7.9878724380944E-01  9.0891226475049E-01
71  7.0000000000000E-01 -7.7994868136463E-02  7.5253735228277E-01  1.0507006943013E+00
72  7.1000000000000E-01 -3.7566513032703E-02  7.0691241182667E-01  1.1899258057075E+00
73  7.2000000000000E-01 -1.6091332112113E-03  6.6207861364262E-01  1.3250716225373E+00
74  7.3000000000000E-01  2.9834596789956E-02  6.1819241071003E-01  1.4546251490019E+00
75  7.4000000000000E-01  5.6791597724383E-02  5.7539960552472E-01  1.5770953883408E+00
76  7.5000000000000E-01  7.9353441830370E-02  5.3383451847464E-01  1.6910339174703E+00
77  7.6000000000000E-01  9.7670563854917E-02  4.9361924371014E-01  1.7950567938796E+00
78  7.7000000000000E-01  1.1194575115926E-01  4.5486299964986E-01  1.8878674686168E+00
79  7.8000000000000E-01  1.2242705022879E-01  4.1766158148775E-01  1.9682802785896E+00
80  7.9000000000000E-01  1.2940023766298E-01  3.8209692318408E-01  2.0352439970354E+00
81  8.0000000000000E-01  1.3318101176510E-01  3.4823677638407E-01  2.0878648377432E+00
82  8.1000000000000E-01  1.3410706584092E-01  3.1613451346720E-01  2.1254282410778E+00
83  8.2000000000000E-01  1.3253020595106E-01  2.8582906144575E-01  2.1474187224786E+00
84  8.3000000000000E-01  1.2880867391305E-01  2.5734497266819E-01  2.1535370407317E+00
85  8.4000000000000E-01  1.2329983066056E-01  2.3069263721368E-01  2.1437139472142E+00
86  8.5000000000000E-01  1.1635334557295E-01  2.0586864047178E-01  2.1181198108891E+00
87  8.6000000000000E-01  1.0830502411781E-01  1.8285626767851E-01  2.0771694786168E+00
88  8.7000000000000E-01  9.9471389233543E-02  1.6162615513384E-01  2.0215218268278E+00
89  8.8000000000000E-01  9.0145111554052E-02  1.4213708547249E-01  1.9520735881751E+00
90  8.9000000000000E-01  8.0591360183910E-02  1.2433692173205E-01  1.8699471937343E+00
91  9.0000000000000E-01  7.1045119706857E-02  1.0816367210264E-01  1.7764725548627E+00
92  9.1000000000000E-01  6.1709490988556E-02  9.3546674205647E-02  1.6731629150349E+00
93  9.2000000000000E-01  5.2754963721869E-02  8.0407884600887E-02  1.5616851261119E+00
94  9.3000000000000E-01  4.4319618250758E-02  6.8663256037504E-02  1.4438249397513E+00
95  9.4000000000000E-01  3.6510183711596E-02  5.8224181823123E-02  1.3214481468398E+00
96  9.5000000000000E-01  2.9403849725493E-02  4.8998983677060E-02  1.1964586389017E+00
97  9.6000000000000E-01  2.3050700521425E-02  4.0894416642576E-02  1.0707546983808E+00
98  9.7000000000000E-01  1.7476614230241E-02  3.3817162148750E-02  9.4618504223725E-01
99  9.8000000000000E-01  1.2686446892254E-02  2.7675278218413E-02  8.2450633838490E-01
100  9.9000000000000E-01  8.6673011140992E-03  2.2379574190791E-02  7.0734408062471E-01
101  1.0000000000000E+00  5.3916639009170E-03  1.7844876236029E-02  5.9615883874181E-01
102  1.0100000000000E+00  2.8201874482386E-03  1.3991149438877E-02  4.9221999132010E-01
103  1.0200000000000E+00  9.0388097257359E-04  1.0744442362226E-02  3.9658909553935E-01
104  1.0300000000000E+00 -4.1450804583884E-04  8.0376247848346E-03  3.1011496784275E-01
105  1.0400000000000E+00 -1.2002233472321E-03  5.8108553644190E-03  2.3344313876954E-01
106  1.0500000000000E+00 -1.5295007150429E-03  4.0110883785901E-03  1.6705595794576E-01
107  1.0600000000000E+00 -1.5193827184260E-03  2.5799550196287E-03  1.1152613632433E-01
108  1.0700000000000E+00 -1.2458336523794E-03  1.4846212245724E-03  6.6938064492465E-02
109  1.0800000000000E+00 -8.0101034543988E-04  7.0478788695381E-04  3.3330689878118E-02
110  1.0900000000000E+00 -3.2804213360619E-04  2.2055006041325E-04  1.1011383264607E-02
111  1.1000000000000E+00 -2.7741776984649E-05  1.4490155005566E-05  7.7028168857445E-04
112  1.1100000000000E+00 -2.8117268219649E-07  1.4572227974989E-07  7.7876062969052E-06
113  1.1200000000000E+00  2.4688433731362E-07 -1.4051820670590E-07 -7.3245900472276E-06
114  1.13  0.  0.  0.
115  1.14  0.  0.  0.
116  1.15  0.  0.  0.
117  1.16  0.  0.  0.
118  1.17  0.  0.  0.
119  1.18  0.  0.  0.
120  1.19  0.  0.  0.
121  1.20  0.  0.  0.
122  1.21  0.  0.  0.
123  1.22  0.  0.  0.
124  1.23  0.  0.  0.
125  1.24  0.  0.  0.
126  1.25  0.  0.  0.
127  1.26  0.  0.  0.
128  1.27  0.  0.  0.
129  1.28  0.  0.  0.
130  1.29  0.  0.  0.
131  1.30  0.  0.  0.
132  1.31  0.  0.  0.
133  1.32  0.  0.  0.
134  1.33  0.  0.  0.
135  1.34  0.  0.  0.
136  1.35  0.  0.  0.
137  1.36  0.  0.  0.
138  1.37  0.  0.  0.
139  1.38  0.  0.  0.
140  1.39  0.  0.  0.
141  1.40  0.  0.  0.
142  1.41  0.  0.  0.
143  1.42  0.  0.  0.
144  1.43  0.  0.  0.
145  1.44  0.  0.  0.
146  1.45  0.  0.  0.
147  1.46  0.  0.  0.
148  1.47  0.  0.  0.
149  1.48  0.  0.  0.
150  1.49  0.  0.  0.
151  1.50  0.  0.  0.
152  1.51  0.  0.  0.
153  1.52  0.  0.  0.
154  1.53  0.  0.  0.
155  1.54  0.  0.  0.
156  1.55  0.  0.  0.
157  1.56  0.  0.  0.
158  1.57  0.  0.  0.
159  1.58  0.  0.  0.
160  1.59  0.  0.  0.
161  1.60  0.  0.  0.
162  1.61  0.  0.  0.
163  1.62  0.  0.  0.
164  1.63  0.  0.  0.
165  1.64  0.  0.  0.
166  1.65  0.  0.  0.
167  1.66  0.  0.  0.
168  1.67  0.  0.  0.
169  1.68  0.  0.  0.
170  1.69  0.  0.  0.
171  1.70  0.  0.  0.
172  1.71  0.  0.  0.
173  1.72  0.  0.  0.
174  1.73  0.  0.  0.
175  1.74  0.  0.  0.
176  1.75  0.  0.  0.
177  1.76  0.  0.  0.
178  1.77  0.  0.  0.
179  1.78  0.  0.  0.
180  1.79  0.  0.  0.
181  1.80  0.  0.  0.
182  1.81  0.  0.  0.
183  1.82  0.  0.  0.
184  1.83  0.  0.  0.
185  1.84  0.  0.  0.
186  1.85  0.  0.  0.
187  1.86  0.  0.  0.
188  1.87  0.  0.  0.
189  1.88  0.  0.  0.
190  1.89  0.  0.  0.
191  1.90  0.  0.  0.
192  1.91  0.  0.  0.
193  1.92  0.  0.  0.
194  1.93  0.  0.  0.
195  1.94  0.  0.  0.
196  1.95  0.  0.  0.
197  1.96  0.  0.  0.
198  1.97  0.  0.  0.
199  1.98  0.  0.  0.
200  1.99  0.  0.  0.
201  2.00  0.  0.  0.
202  2.01  0.  0.  0.
203  2.02  0.  0.  0.
204  2.03  0.  0.  0.
205  2.04  0.  0.  0.
206  2.05  0.  0.  0.
207  2.06  0.  0.  0.
208  2.07  0.  0.  0.
209  2.08  0.  0.  0.
210  2.09  0.  0.  0.
211  2.10  0.  0.  0.
212  2.11  0.  0.  0.
213  2.12  0.  0.  0.
214  2.13  0.  0.  0.
215  2.14  0.  0.  0.
216  2.15  0.  0.  0.
217  2.16  0.  0.  0.
218  2.17  0.  0.  0.
219  2.18  0.  0.  0.
220  2.19  0.  0.  0.
221  2.20  0.  0.  0.
222  2.21  0.  0.  0.
223  2.22  0.  0.  0.
224  2.23  0.  0.  0.
225  2.24  0.  0.  0.
226  2.25  0.  0.  0.
227  2.26  0.  0.  0.
228  2.27  0.  0.  0.
229  2.28  0.  0.  0.
230  2.29  0.  0.  0.
231  2.30  0.  0.  0.
232  2.31  0.  0.  0.
233  2.32  0.  0.  0.
234  2.33  0.  0.  0.
235  2.34  0.  0.  0.
236  2.35  0.  0.  0.
237  2.36  0.  0.  0.
238  2.37  0.  0.  0.
239  2.38  0.  0.  0.
240  2.39  0.  0.  0.
241  2.40  0.  0.  0.
242  2.41  0.  0.  0.
243  2.42  0.  0.  0.
244  2.43  0.  0.  0.
245  2.44  0.  0.  0.
246  2.45  0.  0.  0.
247  2.46  0.  0.  0.
248  2.47  0.  0.  0.
249  2.48  0.  0.  0.
250  2.49  0.  0.  0.
251  2.50  0.  0.  0.
252  2.51  0.  0.  0.
253  2.52  0.  0.  0.
254  2.53  0.  0.  0.
255  2.54  0.  0.  0.
256  2.55  0.  0.  0.
257  2.56  0.  0.  0.
258  2.57  0.  0.  0.
259  2.58  0.  0.  0.
260  2.59  0.  0.  0.
261  2.60  0.  0.  0.
262  2.61  0.  0.  0.
263  2.62  0.  0.  0.
264  2.63  0.  0.  0.
265  2.64  0.  0.  0.
266  2.65  0.  0.  0.
267  2.66  0.  0.  0.
268  2.67  0.  0.  0.
269  2.68  0.  0.  0.
270  2.69  0.  0.  0.
271  2.70  0.  0.  0.
272  2.71  0.  0.  0.
273  2.72  0.  0.  0.
274  2.73  0.  0.  0.
275  2.74  0.  0.  0.
276  2.75  0.  0.  0.
277  2.76  0.  0.  0.
278  2.77  0.  0.  0.
279  2.78  0.  0.  0.
280  2.79  0.  0.  0.
281  2.80  0.  0.  0.
282  2.81  0.  0.  0.
283  2.82  0.  0.  0.
284  2.83  0.  0.  0.
285  2.84  0.  0.  0.
286  2.85  0.  0.  0.
287  2.86  0.  0.  0.
288  2.87  0.  0.  0.
289  2.88  0.  0.  0.
290  2.89  0.  0.  0.
291  2.90  0.  0.  0.
292  2.91  0.  0.  0.
293  2.92  0.  0.  0.
294  2.93  0.  0.  0.
295  2.94  0.  0.  0.
296  2.95  0.  0.  0.
297  2.96  0.  0.  0.
298  2.97  0.  0.  0.
299  2.98  0.  0.  0.
300  2.99  0.  0.  0.
301  3.00  0.  0.  0.
302  3.01  0.  0.  0.
303  3.02  0.  0.  0.
304  3.03  0.  0.  0.
305  3.04  0.  0.  0.
306  3.05  0.  0.  0.
307  3.06  0.  0.  0.
308  3.07  0.  0.  0.
309  3.08  0.  0.  0.
310  3.09  0.  0.  0.
311  3.10  0.  0.  0.
312  3.11  0.  0.  0.
313  3.12  0.  0.  0.
314  3.13  0.  0.  0.
315  3.14  0.  0.  0.
316  3.15  0.  0.  0.
317  3.16  0.  0.  0.
318  3.17  0.  0.  0.
319  3.18  0.  0.  0.
320  3.19  0.  0.  0.
321  3.20  0.  0.  0.
322  3.21  0.  0.  0.
323  3.22  0.  0.  0.
324  3.23  0.  0.  0.
325  3.24  0.  0.  0.
326  3.25  0.  0.  0.
327  3.26  0.  0.  0.
328  3.27  0.  0.  0.
329  3.28  0.  0.  0.
330  3.29  0.  0.  0.
331  3.30  0.  0.  0.
332  3.31  0.  0.  0.
333  3.32  0.  0.  0.
334  3.33  0.  0.  0.
335  3.34  0.  0.  0.
336  3.35  0.  0.  0.
337  3.36  0.  0.  0.
338  3.37  0.  0.  0.
339  3.38  0.  0.  0.
340  3.39  0.  0.  0.
341  3.40  0.  0.  0.
342  3.41  0.  0.  0.
343  3.42  0.  0.  0.
344  3.43  0.  0.  0.
345  3.44  0.  0.  0.
346  3.45  0.  0.  0.
347  3.46  0.  0.  0.
348  3.47  0.  0.  0.
349  3.48  0.  0.  0.
350  3.49  0.  0.  0.
351  3.50  0.  0.  0.
352  3.51  0.  0.  0.
353  3.52  0.  0.  0.
354  3.53  0.  0.  0.
355  3.54  0.  0.  0.
356  3.55  0.  0.  0.
357  3.56  0.  0.  0.
358  3.57  0.  0.  0.
359  3.58  0.  0.  0.
360  3.59  0.  0.  0.
361  3.60  0.  0.  0.
362  3.61  0.  0.  0.
363  3.62  0.  0.  0.
364  3.63  0.  0.  0.
365  3.64  0.  0.  0.
366  3.65  0.  0.  0.
367  3.66  0.  0.  0.
368  3.67  0.  0.  0.
369  3.68  0.  0.  0.
370  3.69  0.  0.  0.
371  3.70  0.  0.  0.
372  3.71  0.  0.  0.
373  3.72  0.  0.  0.
374  3.73  0.  0.  0.
375  3.74  0.  0.  0.
376  3.75  0.  0.  0.
377  3.76  0.  0.  0.
378  3.77  0.  0.  0.
379  3.78  0.  0.  0.
380  3.79  0.  0.  0.
381  3.80  0.  0.  0.
382  3.81  0.  0.  0.
383  3.82  0.  0.  0.
384  3.83  0.  0.  0.
385  3.84  0.  0.  0.
386  3.85  0.  0.  0.
387  3.86  0.  0.  0.
388  3.87  0.  0.  0.
389  3.88  0.  0.  0.
390  3.89  0.  0.  0.
391  3.90  0.  0.  0.
392  3.91  0.  0.  0.
393  3.92  0.  0.  0.
394  3.93  0.  0.  0.
395  3.94  0.  0.  0.
396  3.95  0.  0.  0.
397  3.96  0.  0.  0.
398  3.97  0.  0.  0.
399  3.98  0.  0.  0.
400  3.99  0.  0.  0.
401  4.00  0.  0.  0.
402  4.01  0.  0.  0.
403  4.02  0.  0.  0.
404  4.03  0.  0.  0.
405  4.04  0.  0.  0.
406  4.05  0.  0.  0.
407  4.06  0.  0.  0.
408  4.07  0.  0.  0.
409  4.08  0.  0.  0.
410  4.09  0.  0.  0.
411  4.10  0.  0.  0.
412  4.11  0.  0.  0.
413  4.12  0.  0.  0.
414  4.13  0.  0.  0.
415  4.14  0.  0.  0.
416  4.15  0.  0.  0.
417  4.16  0.  0.  0.
418  4.17  0.  0.  0.
419  4.18  0.  0.  0.
420  4.19  0.  0.  0.
421  4.20  0.  0.  0.
422  4.21  0.  0.  0.
423  4.22  0.  0.  0.
424  4.23  0.  0.  0.
425  4.24  0.  0.  0.
426  4.25  0.  0.  0.
427  4.26  0.  0.  0.
428  4.27  0.  0.  0.
429  4.28  0.  0.  0.
430  4.29  0.  0.  0.
431  4.30  0.  0.  0.
432  4.31  0.  0.  0.
433  4.32  0.  0.  0.
434  4.33  0.  0.  0.
435  4.34  0.  0.  0.
436  4.35  0.  0.  0.
437  4.36  0.  0.  0.
438  4.37  0.  0.  0.
439  4.38  0.  0.  0.
440  4.39  0.  0.  0.
441  4.40  0.  0.  0.
442  4.41  0.  0.  0.
443  4.42  0.  0.  0.
444  4.43  0.  0.  0.
445  4.44  0.  0.  0.
446  4.45  0.  0.  0.
447  4.46  0.  0.  0.
448  4.47  0.  0.  0.
449  4.48  0.  0.  0.
450  4.49  0.  0.  0.
451  4.50  0.  0.  0.
452  4.51  0.  0.  0.
453  4.52  0.  0.  0.
454  4.53  0.  0.  0.
455  4.54  0.  0.  0.
456  4.55  0.  0.  0.
457  4.56  0.  0.  0.
458  4.57  0.  0.  0.
459  4.58  0.  0.  0.
460  4.59  0.  0.  0.
461  4.60  0.  0.  0.
462  4.61  0.  0.  0.
463  4.62  0.  0.  0.
464  4.63  0.  0.  0.
465  4.64  0.  0.  0.
466  4.65  0.  0.  0.
467  4.66  0.  0.  0.
468  4.67  0.  0.  0.
469  4.68  0.  0.  0.
470  4.69  0.  0.  0.
471  4.70  0.  0.  0.
472  4.71  0.  0.  0.
473  4.72  0.  0.  0.
474  4.73  0.  0.  0.
475  4.74  0.  0.  0.
476  4.75  0.  0.  0.
477  4.76  0.  0.  0.
478  4.77  0.  0.  0.
479  4.78  0.  0.  0.
480  4.79  0.  0.  0.
481  4.80  0.  0.  0.
482  4.81  0.  0.  0.
483  4.82  0.  0.  0.
484  4.83  0.  0.  0.
485  4.84  0.  0.  0.
486  4.85  0.  0.  0.
487  4.86  0.  0.  0.
488  4.87  0.  0.  0.
489  4.88  0.  0.  0.
490  4.89  0.  0.  0.
491  4.90  0.  0.  0.
492  4.91  0.  0.  0.
493  4.92  0.  0.  0.
494  4.93  0.  0.  0.
495  4.94  0.  0.  0.
496  4.95  0.  0.  0.
497  4.96  0.  0.  0.
498  4.97  0.  0.  0.
499  4.98  0.  0.  0.
500  4.99  0.  0.  0.
501  5.00  0.  0.  0.
502  5.01  0.  0.  0.
503  5.02  0.  0.  0.
504  5.03  0.  0.  0.
505  5.04  0.  0.  0.
506  5.05  0.  0.  0.
507  5.06  0.  0.  0.
508  5.07  0.  0.  0.
509  5.08  0.  0.  0.
510  5.09  0.  0.  0.
511  5.10  0.  0.  0.
512  5.11  0.  0.  0.
513  5.12  0.  0.  0.
514  5.13  0.  0.  0.
515  5.14  0.  0.  0.
516  5.15  0.  0.  0.
517  5.16  0.  0.  0.
518  5.17  0.  0.  0.
519  5.18  0.  0.  0.
520  5.19  0.  0.  0.
521  5.20  0.  0.  0.
522  5.21  0.  0.  0.
523  5.22  0.  0.  0.
524  5.23  0.  0.  0.
525  5.24  0.  0.  0.
526  5.25  0.  0.  0.
527  5.26  0.  0.  0.
528  5.27  0.  0.  0.
529  5.28  0.  0.  0.
530  5.29  0.  0.  0.
531  5.30  0.  0.  0.
532  5.31  0.  0.  0.
533  5.32  0.  0.  0.
534  5.33  0.  0.  0.
535  5.34  0.  0.  0.
536  5.35  0.  0.  0.
537  5.36  0.  0.  0.
538  5.37  0.  0.  0.
539  5.38  0.  0.  0.
540  5.39  0.  0.  0.
541  5.40  0.  0.  0.
542  5.41  0.  0.  0.
543  5.42  0.  0.  0.
544  5.43  0.  0.  0.
545  5.44  0.  0.  0.
546  5.45  0.  0.  0.
547  5.46  0.  0.  0.
548  5.47  0.  0.  0.
549  5.48  0.  0.  0.
550  5.49  0.  0.  0.
551  5.50  0.  0.  0.
552  5.51  0.  0.  0.
553  5.52  0.  0.  0.
554  5.53  0.  0.  0.
555  5.54  0.  0.  0.
556  5.55  0.  0.  0.
557  5.56  0.  0.  0.
558  5.57  0.  0.  0.
559  5.58  0.  0.  0.
560  5.59  0.  0.  0.
561  5.60  0.  0.  0.
562  5.61  0.  0.  0.
563  5.62  0.  0.  0.
564  5.63  0.  0.  0.
565  5.64  0.  0.  0.
566  5.65  0.  0.  0.
567  5.66  0.  0.  0.
568  5.67  0.  0.  0.
569  5.68  0.  0.  0.
570  5.69  0.  0.  0.
571  5.70  0.  0.  0.
572  5.71  0.  0.  0.
573  5.72  0.  0.  0.
574  5.73  0.  0.  0.
575  5.74  0.  0.  0.
576  5.75  0.  0.  0.
577  5.76  0.  0.  0.
578  5.77  0.  0.  0.
579  5.78  0.  0.  0.
580  5.79  0.  0.  0.
581  5.80  0.  0.  0.
582  5.81  0.  0.  0.
583  5.82  0.  0.  0.
584  5.83  0.  0.  0.
585  5.84  0.  0.  0.
586  5.85  0.  0.  0.
587  5.86  0.  0.  0.
588  5.87  0.  0.  0.
589  5.88  0.  0.  0.
590  5.89  0.  0.  0.
591  5.90  0.  0.  0.
592  5.91  0.  0.  0.
593  5.92  0.  0.  0.
594  5.93  0.  0.  0.
595  5.94  0.  0.  0.
596  5.95  0.  0.  0.
597  5.96  0.  0.  0.
598  5.97  0.  0.  0.
599  5.98  0.  0.  0.
600  5.99  0.  0.  0.
1                        -8.9179682790320E+00  2.2071611499953E+00 -1.4176811089363E-01
1  0.0000000000000E+00  7.0605524205014E-10  3.3614031558216E-08  2.5277003518065E-08
2  1.0000000000000E-02  2.2595844459699E-03  6.4904261424761E-03  2.3108781450298E-03
3  2.0000000000000E-02  9.0259433795458E-03  2.5867811724317E-02  9.1917338732000E-03
4  3.0000000000000E-02  2.0261964141844E-02  5.7851788889263E-02  2.0488137372370E-02
5  4.0000000000000E-02  3.5906027121990E-02  1.0197942778724E-01  3.5945712505322E-02
6  5.0000000000000E-02  5.5872356729712E-02  1.5761169513443E-01  5.5214597811056E-02
7  6.0000000000000E-02  8.0051510243348E-02  2.2394236459915E-01  7.7855593945338E-02
8  7.0000000000000E-02  1.0831100202672E-01  3.0000924976149E-01  1.0334790118878E-01
9  8.0000000000000E-02  1.4049605990228E-01  3.8470759678079E-01  1.3109832537370E-01
10  9.0000000000000E-02  1.7643050976956E-01  4.7680544271179E-01  1.6045180697272E-01
11  1.0000000000000E-01  2.1591778386872E-01  5.7496071710490E-01  1.9070310649336E-01
12  1.1000000000000E-01  2.5874204741143E-01  6.7773983953303E-01  2.2110946005942E-01
13  1.2000000000000E-01  3.0466943763623E-01  7.8363754438401E-01  2.5090400243404E-01
14  1.3000000000000E-01  3.5344940869594E-01  8.9109764696616E-01  2.7930974102380E-01
15  1.4000000000000E-01  4.0481617515249E-01  9.9853445196003E-01  3.0555385384821E-01
16  1.5000000000000E-01  4.5849024624150E-01  1.1043544967095E+00  3.2888207726655E-01
17  1.6000000000000E-01  5.1418004247884E-01  1.2069783179166E+00  3.4857294559894E-01
18  1.7000000000000E-01  5.7158358561650E-01  1.3048619310456E+00  3.6395164478103E-01
19  1.8000000000000E-01  6.3039025241825E-01  1.3965177171496E+00  3.7440324592677E-01
20  1.9000000000000E-01  6.9028258222218E-01  1.4805344218197E+00  3.7938509216326E-01
21  2.0000000000000E-01  7.5093812778900E-01  1.5555959853780E+00  3.7843812330838E-01
22  2.1000000000000E-01  8.1203133850865E-01  1.6204989420624E+00  3.7119693779390E-01
23  2.2000000000000E-01  8.7323546465703E-01  1.6741681484955E+00  3.5739840953312E-01
24  2.3000000000000E-01  9.3422447106498E-01  1.7156706278435E+00  3.3688869898165E-01
25  2.4000000000000E-01  9.9467494828920E-01  1.7442273453306E+00  3.0962852215828E-01
26  2.5000000000000E-01  1.0542680091650E+00  1.7592227627332E+00  2.7569656854571E-01
27  2.6000000000000E-01  1.1126911584803E+00  1.7602120536110E+00  2.3529098818466E-01
28  2.7000000000000E-01  1.1696401234442E+00  1.7469258968081E+00  1.8872889946073E-01
29  2.8000000000000E-01  1.2248206326403E+00  1.7192728025917E+00  1.3644390157703E-01
30  2.9000000000000E-01  1.2779501312577E+00  1.6773389631069E+00  7.8981608972075E-02
31  3.0000000000000E-01  1.3287594205878E+00  1.6213856560087E+00  1.6993258429590E-02
32  3.1000000000000E-01  1.3769942100708E+00  1.5518442665881E+00 -4.8772527247131E-02
33  3.2000000000000E-01  1.4224165705703E+00  1.4693090288564E+00 -1.1747970294355E-01
34  3.3000000000000E-01  1.4648062780555E+00  1.3745276193240E+00 -1.8821634562414E-01
35  3.4000000000000E-01  1.5039620374805E+00  1.2683897680786E+00 -2.6000760415945E-01
36  3.5000000000000E-01  1.5397025773656E+00  1.1519140797415E+00 -3.3182985345041E-01
37  3.6000000000000E-01  1.5718676064103E+00  1.0262332815269E+00 -4.0262582897723E-01
38  3.7000000000000E-01  1.6003186243994E+00  8.9257813656297E-01 -4.7132049878736E-01
39  3.8000000000000E-01  1.6249395806914E+00  7.5226027754235E-01 -5.3683741485107E-01
40  3.9000000000000E-01  1.6456373747088E+00  6.0665422841722E-01 -5.9811527498779E-01
41  4.0000000000000E-01  1.6623421940630E+00  4.5717889005962E-01 -6.5412442045974E-01
42  4.1000000000000E-01  1.6750076872424E+00  3.0527876949404E-01 -7.0388299302118E-01
43  4.2000000000000E-01  1.6836109691507E+00  1.5240523145865E-01 -7.4647247878505E-01
44  4.3000000000000E-01  1.6881524592043E+00 -1.9542672710676E-06 -7.8105237472395E-01
45  4.4000000000000E-01  1.6886555531497E+00 -1.5053250597066E-01 -8.0687372686117E-01
46  4.5000000000000E-01  1.6851661312487E+00 -2.9782271349033E-01 -8.2329130704091E-01
47  4.6000000000000E-01  1.6777519069662E+00 -4.4057147957847E-01 -8.2977421731387E-01
48  4.7000000000000E-01  1.6665016217795E+00 -5.7755510765345E-01 -8.2591473707645E-01
49  4.8000000000000E-01  1.6515240931781E+00 -7.0764064852752E-01 -8.1143525770551E-01
50  4.9000000000000E-01  1.6329471243324E+00 -8.2979764535908E-01 -7.8619318202943E-01
51  5.0000000000000E-01  1.6109162852475E+00 -9.4310814484574E-01 -7.5018370098940E-01
52  5.1000000000000E-01  1.5855935764779E+00 -1.0467748730156E+00 -7.0354039664248E-01
53  5.2000000000000E-01  1.5571559876344E+00 -1.1401275053459E+00 -6.4653365857847E-01
54  5.3000000000000E-01  1.5257939639504E+00 -1.2226269927869E+00 -5.7956693916821E-01
55  5.4000000000000E-01  1.4917097950788E+00 -1.2938679370393E+00 -5.0317091112848E-01
56  5.5000000000000E-01  1.4551159410489E+00 -1.3535790395860E+00 -4.1799562797295E-01
57  5.6000000000000E-01  1.4162333109034E+00 -1.4016216789919E+00 -3.2480082332881E-01
58  5.7000000000000E-01  1.3752895099681E+00 -1.4379866993636E+00 -2.2444451817235E-01
59  5.8000000000000E-01  1.3325170719486E+00 -1.4627895191588E+00 -1.1787013515232E-01
60  5.9000000000000E-01  1.2881516921199E+00 -1.4762636933377E+00 -6.0923457565722E-03
61  6.0000000000000E-01  1.2424304777510E+00 -1.4787530828049E+00  1.0981810136862E-01
62  6.1000000000000E-01  1.1955902316026E+00 -1.4707028029020E+00  2.2875030455232E-01
63  6.2000000000000E-01  1.1478657838484E+00 -1.4526491371426E+00  3.4956960602564E-01
64  6.3000000000000E-01  1.0994883871038E+00 -1.4252086132589E+00  4.7113417379751E-01
65  6.4000000000000E-01  1.0506841884110E+00 -1.3890664458518E+00  5.9231147770937E-01
66  6.5000000000000E-01  1.0016727910348E+00 -1.3449645534602E+00  7.1199437130061E-01
67  6.6000000000000E-01  9.5266591778321E-01 -1.2936893577256E+00  8.2911649882780E-01
68  6.7000000000000E-01  9.0386618629204E-01 -1.2360595686039E+00  9.4266675968147E-01
69  6.8000000000000E-01  8.5546600532801E-01 -1.1729141524311E+00  1.0517025803215E+00
70  6.9000000000000E-01  8.0764659967808E-01 -1.1051006692853E+00  1.1553617663994E+00
71  7.0000000000000E-01  7.6057716963269E-01 -1.0334641527596E+00  1.2528727345684E+00
72  7.1000000000000E-01  7.1441418945320E-01 -9.5883668928228E-01  1.3435629541273E+00
73  7.2000000000000E-01  6.6930084756132E-01 -8.8202783582886E-01  1.4268654625694E+00
74  7.3000000000000E-01  6.2536662952399E-01 -8.0381599463962E-01  1.5023233557131E+00
75  7.4000000000000E-01  5.8272704325041E-01 -7.2494084179209E-01  1.5695921917352E+00
76  7.5000000000000E-01  5.4148348419331E-01 -6.4609688358793E-01  1.6284402884259E+00
77  7.6000000000000E-01  5.0172323677179E-01 -5.6792819112978E-01  1.6787469336264E+00
78  7.7000000000000E-01  4.6351960673085E-01 -4.9102433960639E-01  1.7204985693860E+00
79  7.8000000000000E-01  4.2693217774012E-01 -4.1591755509595E-01  1.7537830501563E+00
80  7.9000000000000E-01  3.9200718422908E-01 -3.4308104854274E-01  1.7787821136273E+00
81  8.0000000000000E-01  3.5877799127369E-01 -2.7292849434433E-01  1.7957622389288E+00
82  8.1000000000000E-01  3.2726567130279E-01 -2.0581459006605E-01  1.8050641002231E+00
83  8.2000000000000E-01  2.9747966649406E-01 -1.4203661449834E-01  1.8070908536224E+00
84  8.3000000000000E-01  2.6941852498635E-01 -8.1836883881611E-02  1.8022955213468E+00
85  8.4000000000000E-01  2.4307069845537E-01 -2.5405990887293E-02  1.7911677586321E+00
86  8.5000000000000E-01  2.1841538818675E-01  2.7113301936419E-02  1.7742203057380E+00
87  8.6000000000000E-01  1.9542342653539E-01  7.5621652914340E-02  1.7519754391866E+00
88  8.7000000000000E-01  1.7405818058242E-01  1.2005836260243E-01  1.7249517428937E+00
89  8.8000000000000E-01  1.5427646488716E-01  1.6039637724686E-01  1.6936515210186E+00
90  8.9000000000000E-01  1.3602945047546E-01  1.9663722823507E-01  1.6585491701508E+00
91  9.0000000000000E-01  1.1926355759997E-01  2.2880606118856E-01  1.6200808189553E+00
92  9.1000000000000E-01  1.0392132034178E-01  2.5694690554719E-01  1.5786355287858E+00
93  9.2000000000000E-01  8.9942211785669E-02  2.8111833026757E-01  1.5345483293269E+00
94  9.3000000000000E-01  7.7263419278316E-02  3.0138962376681E-01  1.4880953393832E+00
95  9.4000000000000E-01  6.5820560156710E-02  3.1783762668769E-01  1.4394911949390E+00
96  9.5000000000000E-01  5.5548329296720E-02  3.3054433467363E-01  1.3888889750606E+00
97  9.6000000000000E-01  4.6381070862627E-02  3.3959537537618E-01  1.3363827816761E+00
98  9.7000000000000E-01  3.8253267721163E-02  3.4507944964351E-01  1.2820130923428E+00
99  9.8000000000000E-01  3.1099943100706E-02  3.4708881155336E-01  1.2257749664768E+00
100  9.9000000000000E-01  2.4856970211655E-02  3.4572084593567E-01  1.1676291458070E+00
101  1.0000000000000E+00  1.9461286680515E-02  3.4108078559297E-01  1.1075160497641E+00
102  1.0100000000000E+00  1.4851011772568E-02  3.3328559385153E-01  1.0453726267691E+00