<UPF version="2.0.1">
  <PP_INFO>
    Generated using "atomic" code by A. Dal Corso  v.5.0.99 svn rev. 10869
    Author: ADC
    Generation date: 10Apr2014
    Pseudopotential type: USPP
    Element: Hg
    Functional: PBE

    Suggested minimum cutoff for wavefunctions:  29. Ry
    Suggested minimum cutoff for charge density: 119. Ry
    The Pseudo was generated with a Scalar-Relativistic Calculation
    Local Potential by smoothing AE potential with Bessel fncs, cutoff radius:   1.9000

    Valence configuration: 
    nl pn  l   occ       Rcut    Rcut US       E pseu
    6S  1  0  2.00      2.000      2.100    -0.501001
    6P  2  1  0.00      2.100      2.300    -0.076872
    5D  3  2 10.00      1.800      2.200    -0.724703
    Generation configuration:
    6S  1  0  2.00      2.000      2.100    -0.500999
    6S  1  0  0.00      1.700      2.100     2.300000
    6P  2  1  0.00      2.100      2.300    -0.076873
    6P  2  1  0.00      1.800      2.300     8.000000
    5D  3  2 10.00      1.800      2.200    -0.724703
    5D  3  2  0.00      1.800      2.200     4.300000

    Pseudization used: troullier-martins
<PP_INPUTFILE>
 &amp;input

   title='Hg',
   zed=80.0,
   rel=1,
   config='[Xe] 4f14. 5d10 6s2 6p0.0',
   iswitch=3,
   dft='PBE'
 /
 &amp;inputp

   pseudotype=3,
   file_pseudopw='Hg.pbe-dn-rrkjus_psl.0.2.2.UPF',
   author='ADC',
   lloc=-1,
   rcloc=1.9,
   which_augfun='PSQ',
   rmatch_augfun=1.9,
   nlcc=.true.,
   new_core_ps=.true.,
   rcore=1.5,
   tm=.true.
 /
6
6S  1  0  2.00  0.00  2.00  2.10  0.0
6S  1  0  0.00  2.30  1.70  2.10  0.0
6P  2  1  0.00  0.00  2.10  2.30  0.0
6P  2  1  0.00  8.00  1.80  2.30  0.0
5D  3  2 10.00  0.00  1.80  2.20  0.0
5D  3  2  0.00  4.30  1.80  2.20  0.0
</PP_INPUTFILE>
  </PP_INFO>
  <!--                               -->
  <!-- END OF HUMAN READABLE SECTION -->
  <!--                               -->
<PP_HEADER generated='Generated using "atomic" code by A. Dal Corso  v.5.0.99 svn rev. 10869' author="ADC" date="10Apr2014" comment="" element="Hg" pseudo_type="USPP" relativistic="scalar" is_ultrasoft="T" is_paw="F" is_coulomb="F" has_so="F" has_wfc="F" has_gipaw="F" paw_as_gipaw="F" core_correction="T" functional="PBE" z_valence="1.200000000000000E+001" total_psenergy="-1.062840369894808E+002" wfc_cutoff="2.891663723347364E+001" rho_cutoff="1.188260553278240E+002" l_max="2" l_max_rho="4" l_local="-1" mesh_size="1279" number_of_wfc="3" number_of_proj="6"/>
<PP_MESH dx="1.250000000000000E-002" mesh="1279" xmin="-7.000000000000000E+000" rmax="1.000000000000000E+002" zmesh="8.000000000000000E+001">
    <PP_R type="real" size="1279" columns="4">
 1.139852456943145E-005  1.154190035836278E-005  1.168707959270728E-005  1.183408495701567E-005 
 1.198293942117525E-005  1.213366624399886E-005  1.228628897685923E-005  1.244083146736889E-005 
 1.259731786310638E-005  1.275577261538943E-005  1.291622048309546E-005  1.307868653653023E-005 
 1.324319616134513E-005  1.340977506250371E-005  1.357844926829822E-005  1.374924513441648E-005 
 1.392218934806004E-005  1.409730893211415E-005  1.427463124937009E-005  1.445418400680072E-005 
 1.463599525988968E-005  1.482009341701516E-005  1.500650724388876E-005  1.519526586805018E-005 
 1.538639878341851E-005  1.557993585490062E-005  1.577590732305768E-005  1.597434380883031E-005 
 1.617527631832310E-005  1.637873624764950E-005  1.658475538783739E-005  1.679336592979659E-005 
 1.700460046934867E-005  1.721849201232021E-005  1.743507397969999E-005  1.765438021286102E-005 
 1.787644497884843E-005  1.810130297573370E-005  1.832898933803629E-005  1.855953964221358E-005 
 1.879298991221966E-005  1.902937662513415E-005  1.926873671686188E-005  1.951110758790415E-005 
 1.975652710920271E-005  2.000503362805705E-005  2.025666597411633E-005  2.051146346544658E-005 
 2.076946591467418E-005  2.103071363520677E-005  2.129524744753218E-005  2.156310868559678E-005 
 2.183433920326400E-005  2.210898138085401E-005  2.238707813176587E-005  2.266867290918269E-005 
 2.295380971286134E-005  2.324253309600751E-005  2.353488817223722E-005  2.383092062262596E-005 
 2.413067670284637E-005  2.443420325039584E-005  2.474154769191496E-005  2.505275805059799E-005 
 2.536788295369667E-005  2.568697164011824E-005  2.601007396811912E-005  2.633724042309543E-005 
 2.666852212547135E-005  2.700397083868693E-005  2.734363897728606E-005  2.768757961510646E-005 
 2.803584649357254E-005  2.838849403009258E-005  2.874557732656170E-005  2.910715217797142E-005 
 2.947327508112791E-005  2.984400324347967E-005  3.021939459205629E-005  3.059950778251979E-005 
 3.098440220832948E-005  3.137413801002248E-005  3.176877608461073E-005  3.216837809509625E-005 
 3.257300648010623E-005  3.298272446364902E-005  3.339759606499313E-005  3.381768610867033E-005 
 3.424306023460461E-005  3.467378490836860E-005  3.510992743156891E-005  3.555155595236209E-005 
 3.599873947610304E-005  3.645154787612710E-005  3.691005190466808E-005  3.737432320391326E-005 
 3.784443431719769E-005  3.832045870033929E-005  3.880247073311636E-005  3.929054573088976E-005 
 3.978475995637083E-005  4.028519063153783E-005  4.079191594970185E-005  4.130501508772478E-005 
 4.182456821839090E-005  4.235065652293390E-005  4.288336220372168E-005  4.342276849710067E-005 
 4.396895968640161E-005  4.452202111510912E-005  4.508203920019663E-005  4.564910144562929E-005 
 4.622329645603665E-005  4.680471395055725E-005  4.739344477685760E-005  4.798958092532705E-005 
 4.859321554345163E-005  4.920444295036854E-005  4.982335865160363E-005  5.045005935399448E-005 
 5.108464298080083E-005  5.172720868700546E-005  5.237785687480724E-005  5.303668920930925E-005 
 5.370380863440425E-005  5.437931938885961E-005  5.506332702260508E-005  5.575593841322502E-005 
 5.645726178265833E-005  5.716740671410841E-005  5.788648416916557E-005  5.861460650514514E-005 
 5.935188749264347E-005  6.009844233331482E-005  6.085438767787204E-005  6.161984164431314E-005 
 6.239492383637772E-005  6.317975536223518E-005  6.397445885340814E-005  6.477915848393406E-005 
 6.559397998976731E-005  6.641905068842594E-005  6.725449949888525E-005  6.810045696172156E-005 
 6.895705525950964E-005  6.982442823747624E-005  7.070271142441385E-005  7.159204205385732E-005 
 7.249255908552677E-005  7.340440322704066E-005  7.432771695590118E-005  7.526264454175699E-005 
 7.620933206894548E-005  7.716792745931876E-005  7.813858049535701E-005  7.912144284357183E-005 
 8.011666807820479E-005  8.112441170522359E-005  8.214483118662016E-005  8.317808596501467E-005 
 8.422433748856834E-005  8.528374923621035E-005  8.635648674318165E-005  8.744271762690013E-005 
 8.854261161315157E-005  8.965634056260874E-005  9.078407849768614E-005  9.192600162973045E-005 
 9.308228838655422E-005  9.425311944031595E-005  9.543867773574952E-005  9.663914851875088E-005 
 9.785471936532217E-005  9.908558021088118E-005  1.003319233799395E-004  1.015939436161526E-004 
 1.028718381127504E-004  1.041658065433476E-004  1.054760510931441E-004  1.068027764905168E-004 
 1.081461900390079E-004  1.095065016497179E-004  1.108839238741032E-004  1.122786719371890E-004 
 1.136909637711978E-004  1.151210200496017E-004  1.165690642216041E-004  1.180353225470526E-004 
 1.195200241317938E-004  1.210234009634712E-004  1.225456879477729E-004  1.240871229451377E-004 
 1.256479468079198E-004  1.272284034180234E-004  1.288287397250094E-004  1.304492057846813E-004 
 1.320900547981582E-004  1.337515431514366E-004  1.354339304554519E-004  1.371374795866436E-004 
 1.388624567280288E-004  1.406091314107958E-004  1.423777765564172E-004  1.441686685192953E-004 
 1.459820871299432E-004  1.478183157387077E-004  1.496776412600453E-004  1.515603542173512E-004 
 1.534667487883555E-004  1.553971228510887E-004  1.573517780304250E-004  1.593310197452134E-004 
 1.613351572559984E-004  1.633645037133435E-004  1.654193762067617E-004  1.675000958142603E-004 
 1.696069876525117E-004  1.717403809276518E-004  1.739006089867202E-004  1.760880093697467E-004 
 1.783029238624907E-004  1.805456985498485E-004  1.828166838699278E-004  1.851162346688050E-004 
 1.874447102559715E-004  1.898024744604743E-004  1.921898956877679E-004  1.946073469772761E-004 
 1.970552060606811E-004  1.995338554209453E-004  2.020436823520734E-004  2.045850790196304E-004 
 2.071584425220157E-004  2.097641749525120E-004  2.124026834621136E-004  2.150743803231423E-004 
 2.177796829936689E-004  2.205190141827395E-004  2.232928019164254E-004  2.261014796047039E-004 
 2.289454861091772E-004  2.318252658116486E-004  2.347412686835551E-004  2.376939503562782E-004 
 2.406837721923366E-004  2.437112013574749E-004  2.467767108936598E-004  2.498807797929929E-004 
 2.530238930725549E-004  2.562065418501907E-004  2.594292234212468E-004  2.626924413362754E-004 
 2.659967054797147E-004  2.693425321495597E-004  2.727304441380347E-004  2.761609708132805E-004 
 2.796346482020700E-004  2.831520190735621E-004  2.867136330241116E-004  2.903200465631447E-004 
 2.939718232001138E-004  2.976695335325485E-004  3.014137553352109E-004  3.052050736503754E-004 
 3.090440808792425E-004  3.129313768745018E-004  3.168675690340618E-004  3.208532723959554E-004 
 3.248891097344418E-004  3.289757116573164E-004  3.331137167044436E-004  3.373037714475311E-004 
 3.415465305911571E-004  3.458426570750697E-004  3.501928221777728E-004  3.545977056214137E-004 
 3.590579956779929E-004  3.635743892769059E-004  3.681475921138411E-004  3.727783187610464E-004 
 3.774672927789813E-004  3.822152468293762E-004  3.870229227897112E-004  3.918910718691361E-004 
 3.968204547258494E-004  4.018118415859508E-004  4.068660123637929E-004  4.119837567838421E-004 
 4.171658745040760E-004  4.224131752409320E-004  4.277264788958254E-004  4.331066156832628E-004 
 4.385544262605630E-004  4.440707618592121E-004  4.496564844178708E-004  4.553124667170530E-004 
 4.610395925155002E-004  4.668387566882703E-004  4.727108653665636E-004  4.786568360793083E-004 
 4.846775978965251E-004  4.907740915744977E-004  4.969472697027665E-004  5.031980968529732E-004 
 5.095275497295778E-004  5.159366173224693E-004  5.224263010614990E-004  5.289976149729540E-004 
 5.356515858380023E-004  5.423892533531297E-004  5.492116702925928E-004  5.561199026729190E-004 
 5.631150299194728E-004  5.701981450351175E-004  5.773703547710015E-004  5.846327797994872E-004 
 5.919865548892616E-004  5.994328290826435E-004  6.069727658751247E-004  6.146075433971698E-004 
 6.223383545982993E-004  6.301664074334923E-004  6.380929250519302E-004  6.461191459881177E-004 
 6.542463243554048E-004  6.624757300419475E-004  6.708086489091267E-004  6.792463829924687E-004 
 6.877902507050908E-004  6.964415870437050E-004  7.052017437972169E-004  7.140720897579412E-004 
 7.230540109354810E-004  7.321489107732944E-004  7.413582103679840E-004  7.506833486913493E-004 
 7.601257828152247E-004  7.696869881391530E-004  7.793684586209183E-004  7.891717070099797E-004 
 7.990982650838447E-004  8.091496838874069E-004  8.193275339753045E-004  8.296334056573205E-004 
 8.400689092468719E-004  8.506356753126274E-004  8.613353549332823E-004  8.721696199555458E-004 
 8.831401632553703E-004  8.942486990024652E-004  9.054969629281432E-004  9.168867125965267E-004 
 9.284197276791739E-004  9.400978102331554E-004  9.519227849826290E-004  9.638964996039589E-004 
 9.760208250144146E-004  9.882976556645085E-004  1.000728909834007E-003  1.013316529931665E-003 
 1.026062482798735E-003  1.038968760016282E-003  1.052037378216380E-003  1.065270379397211E-003 
 1.078669831242131E-003  1.092237827442755E-003  1.105976488026091E-003  1.119887959685809E-003 
 1.133974416117657E-003  1.148238058359111E-003  1.162681115133294E-003  1.177305843197209E-003 
 1.192114527694371E-003  1.207109482511861E-003  1.222293050641876E-003  1.237667604547829E-003 
 1.253235546535047E-003  1.268999309126139E-003  1.284961355441080E-003  1.301124179582083E-003 
 1.317490307023304E-003  1.334062295005453E-003  1.350842732935366E-003  1.367834242790612E-003 
 1.385039479529175E-003  1.402461131504297E-003  1.420101920884547E-003  1.437964604079155E-003 
 1.456051972168713E-003  1.474366851341282E-003  1.492912103333995E-003  1.511690625880209E-003 
 1.530705353162274E-003  1.549959256270016E-003  1.569455343664966E-003  1.589196661650445E-003 
 1.609186294847553E-003  1.629427366677146E-003  1.649923039847878E-003  1.670676516850381E-003 
 1.691691040457659E-003  1.712969894231781E-003  1.734516403036941E-003  1.756333933558977E-003 
 1.778425894831421E-003  1.800795738768166E-003  1.823446960702843E-003  1.846383099934961E-003 
 1.869607740282939E-003  1.893124510644083E-003  1.916937085561606E-003  1.941049185798788E-003 
 1.965464578920346E-003  1.990187079881130E-003  2.015220551622211E-003  2.040568905674480E-003 
 2.066236102769832E-003  2.092226153460032E-003  2.118543118743378E-003  2.145191110699236E-003 
 2.172174293130564E-003  2.199496882214519E-003  2.227163147161231E-003  2.255177410880886E-003 
 2.283544050659185E-003  2.312267498841304E-003  2.341352243524463E-003  2.370802829259192E-003 
 2.400623857759428E-003  2.430819988621546E-003  2.461395940052426E-003  2.492356489606690E-003 
 2.523706474933193E-003  2.555450794530926E-003  2.587594408514410E-003  2.620142339388723E-003 
 2.653099672834289E-003  2.686471558501508E-003  2.720263210815413E-003  2.754479909790425E-003 
 2.789127001855373E-003  2.824209900688886E-003  2.859734088065281E-003  2.895705114711111E-003 
 2.932128601172473E-003  2.969010238693227E-003  3.006355790104277E-003  3.044171090724010E-003 
 3.082462049270083E-003  3.121234648782671E-003  3.160494947559331E-003  3.200249080101626E-003 
 3.240503258073645E-003  3.281263771272593E-003  3.322536988611585E-003  3.364329359114798E-003 
 3.406647412925158E-003  3.449497762324665E-003  3.492887102767593E-003  3.536822213926663E-003 
 3.581309960752376E-003  3.626357294545692E-003  3.671971254044162E-003  3.718158966521759E-003 
 3.764927648902529E-003  3.812284608888241E-003  3.860237246100249E-003  3.908793053235673E-003 
 3.957959617238167E-003  4.007744620483386E-003  4.058155841979372E-003  4.109201158582052E-003 
 4.160888546225996E-003  4.213226081170681E-003  4.266221941262425E-003  4.319884407212182E-003 
 4.374221863889443E-003  4.429242801632360E-003  4.484955817574398E-003  4.541369616987643E-003 
 4.598493014643029E-003  4.656334936187663E-003  4.714904419539463E-003  4.774210616299364E-003 
 4.834262793181269E-003  4.895070333459988E-003  4.956642738437412E-003  5.018989628927085E-003 
 5.082120746757492E-003  5.146045956294235E-003  5.210775245981355E-003  5.276318729902070E-003 
 5.342686649359085E-003  5.409889374474844E-003  5.477937405811870E-003  5.546841376013498E-003 
 5.616612051465271E-003  5.687260333977171E-003  5.758797262487076E-003  5.831234014785609E-003 
 5.904581909262683E-003  5.978852406676052E-003  6.054057111942033E-003  6.130207775948830E-003 
 6.207316297392624E-003  6.285394724636762E-003  6.364455257594366E-003  6.444510249634554E-003 
 6.525572209512704E-003  6.607653803324971E-003  6.690767856487379E-003  6.774927355739840E-003 
 6.860145451175333E-003  6.946435458294646E-003  7.033810860086952E-003  7.122285309136537E-003 
 7.211872629756084E-003  7.302586820146700E-003  7.394442054585193E-003  7.487452685638822E-003 
 7.581633246407917E-003  7.676998452796724E-003  7.773563205812755E-003  7.871342593895129E-003 
 7.970351895272173E-003  8.070606580348650E-003  8.172122314123093E-003  8.274914958635428E-003 
 8.379000575445496E-003  8.484395428142685E-003  8.591115984887153E-003  8.699178920983026E-003 
 8.808601121483921E-003  8.919399683831286E-003  9.031591920525908E-003  9.145195361833022E-003 
 9.260227758521474E-003  9.376707084637276E-003  9.494651540312111E-003  9.614079554607139E-003 
 9.735009788392561E-003  9.857461137263459E-003  9.981452734492215E-003  1.010700395401816E-002 
 1.023413441347478E-002  1.036286397725500E-002  1.049321275961509E-002  1.062520112781748E-002 
 1.075884970531323E-002  1.089417937496448E-002  1.103121128230744E-002  1.116996683885645E-002 
 1.131046772544950E-002  1.145273589563598E-002  1.159679357910692E-002  1.174266328516845E-002 
 1.189036780625893E-002  1.203993022151028E-002  1.219137390035416E-002  1.234472250617353E-002 
 1.250000000000000E-002  1.265723064425793E-002  1.281643900655537E-002  1.297764996352282E-002 
 1.314088870470031E-002  1.330618073647324E-002  1.347355188605790E-002  1.364302830553690E-002 
 1.381463647594560E-002  1.398840321140977E-002  1.416435566333533E-002  1.434252132465091E-002 
 1.452292803410354E-002  1.470560398060864E-002  1.489057770765449E-002  1.507787811776226E-002 
 1.526753447700213E-002  1.545957641956607E-002  1.565403395239831E-002  1.585093745988400E-002 
 1.605031770859677E-002  1.625220585210614E-002  1.645663343584527E-002  1.666363240204004E-002 
 1.687323509470005E-002  1.708547426467245E-002  1.730038307475940E-002  1.751799510489967E-002 
 1.773834435741573E-002  1.796146526232657E-002  1.818739268272752E-002  1.841616192023770E-002 
 1.864780872051588E-002  1.888236927884592E-002  1.911988024579225E-002  1.936037873292666E-002 
 1.960390231862711E-002  1.985048905394930E-002  2.010017746857230E-002  2.035300657681889E-002 
 2.060901588375160E-002  2.086824539134554E-002  2.113073560473865E-002  2.139652753856082E-002 
 2.166566272334245E-002  2.193818321200373E-002  2.221413158642548E-002  2.249355096410261E-002 
 2.277648500488138E-002  2.306297791778126E-002  2.335307446790278E-002  2.364681998342213E-002 
 2.394426036267371E-002  2.424544208132194E-002  2.455041219962311E-002  2.485921836977865E-002 
 2.517190884338096E-002  2.548853247895270E-002  2.580913874958109E-002  2.613377775064821E-002 
 2.646250020765844E-002  2.679535748416450E-002  2.713240158979304E-002  2.747368518837129E-002 
 2.781926160615587E-002  2.816918484016511E-002  2.852350956661630E-002  2.888229114946881E-002 
 2.924558564907490E-002  2.961344983093927E-002  2.998594117458873E-002  3.036311788255361E-002 
 3.074503888946188E-002  3.113176387124790E-002  3.152335325447687E-002  3.191986822578659E-002 
 3.232137074144809E-002  3.272792353704627E-002  3.313959013728260E-002  3.355643486590090E-002 
 3.397852285573806E-002  3.440592005890134E-002  3.483869325707314E-002  3.527691007194624E-002 
 3.572063897578957E-002  3.616994930214702E-002  3.662491125667131E-002  3.708559592809336E-002 
 3.755207529933040E-002  3.802442225873332E-002  3.850271061147539E-002  3.898701509108495E-002 
 3.947741137112211E-002  3.997397607700343E-002  4.047678679797454E-002  4.098592209923342E-002 
 4.150146153420689E-002  4.202348565698038E-002  4.255207603488522E-002  4.308731526124347E-002 
 4.362928696827302E-002  4.417807584015591E-002  4.473376762626975E-002  4.529644915458676E-002 
 4.586620834524058E-002  4.644313422426380E-002  4.702731693749893E-002  4.761884776468328E-002 
 4.821781913371216E-002  4.882432463508068E-002  4.943845903650722E-002  5.006031829774162E-002 
 5.068999958555846E-002  5.132760128894014E-002  5.197322303445014E-002  5.262696570179950E-002 
 5.328893143961028E-002  5.395922368137555E-002  5.463794716162196E-002  5.532520793227422E-002 
 5.602111337922581E-002  5.672577223911884E-002  5.743929461633362E-002  5.816179200019336E-002 
 5.889337728238431E-002  5.963416477459503E-002  6.038427022637854E-002  6.114381084323758E-002 
 6.191290530493891E-002  6.269167378405703E-002  6.348023796475102E-002  6.427872106177865E-002 
 6.508724783974813E-002  6.590594463261362E-002  6.673493936341475E-002  6.757436156426458E-002 
 6.842434239659007E-002  6.928501467162530E-002  7.015651287116444E-002  7.103897316857435E-002 
 7.193253345007164E-002  7.283733333626849E-002  7.375351420398772E-002  7.468121920835402E-002 
 7.562059330516188E-002  7.657178327352483E-002  7.753493773881090E-002  7.851020719586457E-002 
 7.949774403252287E-002  8.049770255342580E-002  8.151023900412641E-002  8.253551159550543E-002 
 8.357368052849090E-002  8.462490801909092E-002  8.568935832373978E-002  8.676719776496294E-002 
 8.785859475736627E-002  8.896371983394996E-002  9.008274567275582E-002  9.121584712384796E-002 
 9.236320123663314E-002  9.352498728752608E-002  9.470138680796061E-002  9.589258361275535E-002 
 9.709876382883473E-002  9.832011592431114E-002  9.955683073793475E-002  1.008091015089109E-001 
 1.020771239070956E-001  1.033610960635684E-001  1.046612186015908E-001  1.059776946679548E-001 
 1.073107299647237E-001  1.086605327813750E-001  1.100273140273452E-001  1.114112872649842E-001 
 1.128126687429266E-001  1.142316774298791E-001  1.156685350488361E-001  1.171234661117242E-001 
 1.185966979544816E-001  1.200884607725814E-001  1.215989876569986E-001  1.231285146306323E-001 
 1.246772806851841E-001  1.262455278185007E-001  1.278335010723876E-001  1.294414485708962E-001 
 1.310696215590946E-001  1.327182744423251E-001  1.343876648259544E-001  1.360780535556269E-001 
 1.377897047580200E-001  1.395228858821171E-001  1.412778677409949E-001  1.430549245541390E-001 
 1.448543339902925E-001  1.466763772108402E-001  1.485213389137424E-001  1.503895073780192E-001 
 1.522811745087934E-001  1.541966358829033E-001  1.561361907950852E-001  1.581001423047403E-001 
 1.600887972832880E-001  1.621024664621142E-001  1.641414644811254E-001  1.662061099379099E-001 
 1.682967254375214E-001  1.704136376428846E-001  1.725571773258387E-001  1.747276794188206E-001 
 1.769254830671976E-001  1.791509316822619E-001  1.814043729948866E-001  1.836861591098618E-001 
 1.859966465609106E-001  1.883361963663974E-001  1.907051740857398E-001  1.931039498765253E-001 
 1.955328985523521E-001  1.979923996413929E-001  2.004828374456959E-001  2.030046011012357E-001 
 2.055580846387133E-001  2.081436870451268E-001  2.107618123261131E-001  2.134128695690733E-001 
 2.160972730070958E-001  2.188154420836786E-001  2.215678015182705E-001  2.243547813726332E-001 
 2.271768171180383E-001  2.300343497033134E-001  2.329278256237377E-001  2.358576969908110E-001 
 2.388244216028959E-001  2.418284630167477E-001  2.448702906199502E-001  2.479503797042542E-001 
 2.510692115398458E-001  2.542272734505454E-001  2.574250588899504E-001  2.606630675185430E-001 
 2.639418052817578E-001  2.672617844890418E-001  2.706235238939009E-001  2.740275487749559E-001 
 2.774743910180208E-001  2.809645891992078E-001  2.844986886690841E-001  2.880772416378825E-001 
 2.917008072617840E-001  2.953699517302906E-001  2.990852483546894E-001  3.028472776576372E-001 
 3.066566274638672E-001  3.105138929920356E-001  3.144196769477300E-001  3.183745896176387E-001 
 3.223792489649133E-001  3.264342807257249E-001  3.305403185070350E-001  3.346980038856019E-001 
 3.389079865082238E-001  3.431709241932512E-001  3.474874830333711E-001  3.518583374996832E-001 
 3.562841705470915E-001  3.607656737210129E-001  3.653035472654368E-001  3.698985002323373E-001 
 3.745512505924628E-001  3.792625253475245E-001  3.840330606437867E-001  3.888636018870958E-001 
 3.937549038593496E-001  3.987077308364312E-001  4.037228567076340E-001  4.088010650965772E-001 
 4.139431494836539E-001  4.191499133300121E-001  4.244221702030944E-001  4.297607439037653E-001 
 4.351664685950256E-001  4.406401889323567E-001  4.461827601956989E-001  4.517950484230867E-001 
 4.574779305459755E-001  4.632322945262574E-001  4.690590394950124E-001  4.749590758929975E-001 
 4.809333256129017E-001  4.869827221434003E-001  4.931082107150069E-001  4.993107484477742E-001 
 5.055913045008429E-001  5.119508602238725E-001  5.183904093103852E-001  5.249109579530251E-001 
 5.315135250007847E-001  5.381991421181995E-001  5.449688539465438E-001  5.518237182670661E-001 
 5.587648061662607E-001  5.657932022032346E-001  5.729100045791690E-001  5.801163253089122E-001 
 5.874132903947419E-001  5.948020400022963E-001  6.022837286387352E-001  6.098595253331307E-001 
 6.175306138191273E-001  6.252981927199102E-001  6.331634757354834E-001  6.411276918323213E-001 
 6.491920854353936E-001  6.573579166226057E-001  6.656264613216962E-001  6.739990115095946E-001 
 6.824768754143029E-001  6.910613777193061E-001  6.997538597705519E-001  7.085556797860484E-001 
 7.174682130680780E-001  7.264928522180998E-001  7.356310073543433E-001  7.448841063321374E-001 
 7.542535949670257E-001  7.637409372606672E-001  7.733476156295985E-001  7.830751311368614E-001 
 7.929250037265418E-001  8.028987724612744E-001  8.129979957627127E-001  8.232242516550462E-001 
 8.335791380115651E-001  8.440642728043268E-001  8.546812943569778E-001  8.654318616007330E-001 
 8.763176543335982E-001  8.873403734828367E-001  8.985017413707383E-001  9.098035019837468E-001 
 9.212474212449481E-001  9.328352872900114E-001  9.445689107465836E-001  9.564501250171986E-001 
 9.684807865657621E-001  9.806627752076145E-001  9.929979944032666E-001  1.005488371555816E+000 
 1.018135858312102E+000  1.030942430867664E+000  1.043910090275516E+000  1.057040862758825E+000 
 1.070336800027508E+000  1.083799979598811E+000  1.097432505121936E+000  1.111236506706729E+000 
 1.125214141256523E+000  1.139367592805156E+000  1.153699072858223E+000  1.168210820738647E+000 
 1.182905103936552E+000  1.197784218463586E+000  1.212850489211668E+000  1.228106270316251E+000 
 1.243553945524174E+000  1.259195928566114E+000  1.275034663533746E+000  1.291072625261636E+000 
 1.307312319713928E+000  1.323756284375925E+000  1.340407088650557E+000  1.357267334259870E+000 
 1.374339655651545E+000  1.391626720410529E+000  1.409131229675867E+000  1.426855918562738E+000 
 1.444803556589846E+000  1.462976948112149E+000  1.481378932759042E+000  1.500012385878069E+000 
 1.518880218984187E+000  1.537985380214707E+000  1.557330854789943E+000  1.576919665479652E+000 
 1.596754873075363E+000  1.616839576868612E+000  1.637176915135232E+000  1.657770065625708E+000 
 1.678622246061694E+000  1.699736714638814E+000  1.721116770535734E+000  1.742765754429690E+000 
 1.764687049018463E+000  1.786884079548925E+000  1.809360314352264E+000  1.832119265385890E+000 
 1.855164488782207E+000  1.878499585404262E+000  1.902128201408370E+000  1.926054028813861E+000 
 1.950280806079939E+000  1.974812318689843E+000  1.999652399742333E+000  2.024804930550604E+000 
 2.050273841248775E+000  2.076063111405952E+000  2.102176770648068E+000  2.128618899287514E+000 
 2.155393628960679E+000  2.182505143273556E+000  2.209957678455406E+000  2.237755524020709E+000 
 2.265903023439392E+000  2.294404574815500E+000  2.323264631574429E+000  2.352487703158756E+000 
 2.382078355732875E+000  2.412041212896457E+000  2.442380956406887E+000  2.473102326910822E+000 
 2.504210124684898E+000  2.535709210385811E+000  2.567604505809792E+000  2.599900994661633E+000 
 2.632603723333435E+000  2.665717801693076E+000  2.699248403882677E+000  2.733200769127052E+000 
 2.767580202552339E+000  2.802392076014966E+000  2.837641828940976E+000  2.873334969175986E+000 
 2.909477073845779E+000  2.946073790227733E+000  2.983130836633248E+000  3.020654003301209E+000 
 3.058649153302755E+000  3.097122223457379E+000  3.136079225260557E+000  3.175526245823091E+000 
 3.215469448822187E+000  3.255915075464585E+000  3.296869445461740E+000  3.338338958017277E+000 
 3.380330092826912E+000  3.422849411090882E+000  3.465903556539175E+000  3.509499256469619E+000 
 3.553643322799012E+000  3.598342653127542E+000  3.643604231816502E+000  3.689435131079654E+000 
 3.735842512088257E+000  3.782833626089998E+000  3.830415815542057E+000  3.878596515258330E+000 
 3.927383253571178E+000  3.976783653507726E+000  4.026805433980956E+000  4.077456410995854E+000 
 4.128744498870612E+000  4.180677711473313E+000  4.233264163474095E+000  4.286512071613055E+000 
 4.340429755984188E+000  4.395025641335360E+000  4.450308258384739E+000  4.506286245153722E+000 
 4.562968348316611E+000  4.620363424567365E+000  4.678480442003402E+000  4.737328481526944E+000 
 4.796916738263903E+000  4.857254523000610E+000  4.918351263638706E+000  4.980216506668199E+000 
 5.042859918659189E+000  5.106291287772256E+000  5.170520525287860E+000  5.235557667155054E+000 
 5.301412875559557E+000  5.368096440511674E+000  5.435618781454108E+000  5.503990448889986E+000 
 5.573222126031469E+000  5.643324630468944E+000  5.714308915861362E+000  5.786186073647745E+000 
 5.858967334780212E+000  5.932664071478912E+000  6.007287799008867E+000  6.082850177479340E+000 
 6.159363013665709E+000  6.236838262854276E+000  6.315288030710368E+000  6.394724575169803E+000 
 6.475160308354274E+000  6.556607798510756E+000  6.639079771975264E+000  6.722589115161467E+000 
 6.807148876574118E+000  6.892772268847985E+000  6.979472670812325E+000  7.067263629581315E+000 
 7.156158862670898E+000  7.246172260142080E+000  7.337317886771361E+000  7.429609984248353E+000 
 7.523062973401028E+000  7.617691456449101E+000  7.713510219285546E+000  7.810534233787012E+000 
 7.908778660153176E+000  8.008258849275510E+000  8.108990345135988E+000  8.210988887235747E+000 
 8.314270413054523E+000  8.418851060540868E+000  8.524747170633693E+000  8.631975289815680E+000 
 8.740552172698573E+000  8.850494784641242E+000  8.961820304400499E+000  9.074546126815267E+000 
 9.188689865524674E+000  9.304269355720088E+000  9.421302656932017E+000  9.539808055851896E+000 
 9.659804069189374E+000  9.781309446565707E+000  9.904343173443277E+000  1.002892447409224E+001 
 1.015507281459430E+001  1.028280790588428E+001  1.041214970683011E+001  1.054311842735129E+001 
 1.067573453157689E+001  1.081001874104302E+001  1.094599203793057E+001  1.108367566834387E+001 
 1.122309114563023E+001  1.136426025374165E+001  1.150720505063851E+001  1.165194787173610E+001 
 1.179851133339475E+001  1.194691833645347E+001  1.209719206980846E+001  1.224935601403630E+001 
 1.240343394506283E+001  1.255944993787827E+001  1.271742837029889E+001  1.287739392677617E+001 
 1.303937160225380E+001  1.320338670607306E+001  1.336946486592768E+001  1.353763203186795E+001 
 1.370791448035573E+001  1.388033881837006E+001  1.405493198756451E+001  1.423172126847701E+001 
 1.441073428479236E+001  1.459199900765857E+001  1.477554376005740E+001  1.496139722122979E+001 