<UPF version="2.0.1">
  <PP_INFO>
    Generated using "atomic" code by A. Dal Corso  v.5.0.99 svn rev. 10869
    Author: ADC
    Generation date: 10Apr2014
    Pseudopotential type: USPP
    Element:  I
    Functional: PBE

    Suggested minimum cutoff for wavefunctions:  28. Ry
    Suggested minimum cutoff for charge density: 113. Ry
    The Pseudo was generated with a Scalar-Relativistic Calculation
    L component and cutoff radius for Local Potential:  2   2.0000

    Valence configuration: 
    nl pn  l   occ       Rcut    Rcut US       E pseu
    5S  1  0  2.00      1.700      1.900    -1.279409
    5P  2  1  5.00      1.700      1.800    -0.520796
    Generation configuration:
    5S  1  0  2.00      1.700      1.900    -1.279404
    5S  1  0  0.00      1.500      1.900     6.000000
    5P  2  1  5.00      1.700      1.800    -0.520794
    5P  2  1  0.00      1.700      1.800     0.200000
    5D  3  2 -2.00      2.000      2.000     1.500000

    Pseudization used: troullier-martins
<PP_INPUTFILE>
 &amp;input

   title='I',
   zed=53.,
   rel=1,
   config='[Kr] 4d10.0 5s2.0 5p5.0 5d-2.0',
   iswitch=3,
   dft='PBE'
 /
 &amp;inputp

   pseudotype=3,
   file_pseudopw='I.pbe-n-rrkjus_psl.0.2.UPF',
   author='ADC',
   lloc=2,
   which_augfun ='PSQ',
   rmatch_augfun=1.7,
   nlcc=.true.,
   new_core_ps=.true.,
   tm=.true.
 /
5
5S  1  0  2.00  0.00  1.70  1.90  0.0
5S  1  0  0.00  6.00  1.50  1.90  0.0
5P  2  1  5.00  0.00  1.70  1.80  0.0
5P  2  1  0.00  0.20  1.70  1.80  0.0
5D  3  2 -2.00  1.50  2.00  2.00  0.0
</PP_INPUTFILE>
  </PP_INFO>
  <!--                               -->
  <!-- END OF HUMAN READABLE SECTION -->
  <!--                               -->
<PP_HEADER generated='Generated using "atomic" code by A. Dal Corso  v.5.0.99 svn rev. 10869' author="ADC" date="10Apr2014" comment="" element=" I" pseudo_type="USPP" relativistic="scalar" is_ultrasoft="T" is_paw="F" is_coulomb="F" has_so="F" has_wfc="F" has_gipaw="F" paw_as_gipaw="F" core_correction="T" functional="PBE" z_valence="7.000000000000000E+000" total_psenergy="-5.880828188051400E+001" wfc_cutoff="2.816603352560255E+001" rho_cutoff="1.126641341024102E+002" l_max="2" l_max_rho="4" l_local="2" mesh_size="1247" number_of_wfc="2" number_of_proj="4"/>
<PP_MESH dx="1.250000000000000E-002" mesh="1247" xmin="-7.000000000000000E+000" rmax="1.000000000000000E+002" zmesh="5.300000000000000E+001">
    <PP_R type="real" size="1247" columns="4">
 1.720532010480219E-005  1.742173638998155E-005  1.764087485691664E-005  1.786276974643876E-005 
 1.808745573007585E-005  1.831496791546998E-005  1.854534185186299E-005  1.877861353565116E-005 
 1.901481941600963E-005  1.925399640058782E-005  1.949618186127617E-005  1.974141364004563E-005 
 1.998973005486057E-005  2.024116990566598E-005  2.049577248045015E-005  2.075357756138336E-005 
 2.101462543103402E-005  2.127895687866288E-005  2.154661320659637E-005  2.181763623668034E-005 
 2.209206831681461E-005  2.236995232757005E-005  2.265133168888869E-005  2.293625036686820E-005 
 2.322475288063172E-005  2.351688430928395E-005  2.381269029895499E-005  2.411221706993254E-005 
 2.441551142388392E-005  2.472262075116906E-005  2.503359303824512E-005  2.534847687516466E-005 
 2.566732146316781E-005  2.599017662237013E-005  2.631709279954715E-005  2.664812107601663E-005 
 2.698331317562027E-005  2.732272147280558E-005  2.766639900080949E-005  2.801439945994503E-005 
 2.836677722599193E-005  2.872358735869305E-005  2.908488561035755E-005  2.945072843457231E-005 
 2.982117299502296E-005  3.019627717442574E-005  3.057609958357182E-005  3.096069957048540E-005 
 3.135013722969687E-005  3.174447341163285E-005  3.214376973212403E-005  3.254808858203288E-005 
 3.295749313700226E-005  3.337204736732681E-005  3.379181604794848E-005  3.421686476857765E-005 
 3.464725994394165E-005  3.508306882416228E-005  3.552435950526372E-005  3.597120093981277E-005 
 3.642366294769263E-005  3.688181622701259E-005  3.734573236515465E-005  3.781548384995923E-005 
 3.829114408105158E-005  3.877278738131054E-005  3.926048900848168E-005  3.975432516693649E-005 
 4.025437301957940E-005  4.076071069990480E-005  4.127341732420538E-005  4.179257300393428E-005 
 4.231825885822270E-005  4.285055702655484E-005  4.338955068160257E-005  4.393532404222101E-005 
 4.448796238660817E-005  4.504755206562969E-005  4.561418051631139E-005  4.618793627550157E-005 
 4.676890899370487E-005  4.735718944909054E-005  4.795286956167657E-005  4.855604240769245E-005 
 4.916680223412261E-005  4.978524447343248E-005  5.041146575848020E-005  5.104556393761560E-005 
 5.168763808996922E-005  5.233778854093375E-005  5.299611687783986E-005  5.366272596582957E-005 
 5.433771996392912E-005  5.502120434132392E-005  5.571328589383861E-005  5.641407276062378E-005 
 5.712367444105312E-005  5.784220181183289E-005  5.856976714432658E-005  5.930648412209774E-005 
 6.005246785867296E-005  6.080783491552880E-005  6.157270332030468E-005  6.234719258524494E-005 
 6.313142372587306E-005  6.392551927990022E-005  6.472960332637235E-005  6.554380150505762E-005 
 6.636824103607790E-005  6.720305073978736E-005  6.804836105690057E-005  6.890430406887441E-005 
 6.977101351854588E-005  7.064862483102982E-005  7.153727513487939E-005  7.243710328351252E-005 
 7.334824987690812E-005  7.427085728357516E-005  7.520506966279793E-005  7.615103298716147E-005 
 7.710889506535974E-005  7.807880556529127E-005  7.906091603744489E-005  8.005537993858001E-005 
 8.106235265570453E-005  8.208199153035414E-005  8.311445588317747E-005  8.415990703883023E-005 
 8.521850835118238E-005  8.629042522884289E-005  8.737582516100464E-005  8.847487774361531E-005 
 8.958775470587694E-005  9.071462993707898E-005  9.185567951376911E-005  9.301108172726513E-005 
 9.418101711151353E-005  9.536566847129838E-005  9.656522091080474E-005  9.777986186254197E-005 
 9.900978111662990E-005  1.002551708504542E-004  1.015162256586947E-004  1.027931425837307E-004 
 1.040861211464296E-004  1.053953633773226E-004  1.067210738481719E-004  1.080634597039356E-004 
 1.094227306951347E-004  1.107990992106274E-004  1.121927803107942E-004  1.136039917611426E-004 
 1.150329540663328E-004  1.164798905046321E-004  1.179450271628030E-004  1.194285929714292E-004 
 1.209308197406865E-004  1.224519421965639E-004  1.239921980175399E-004  1.255518278717203E-004 
 1.271310754544428E-004  1.287301875263553E-004  1.303494139519723E-004  1.319890077387172E-004 
 1.336492250764552E-004  1.353303253775226E-004  1.370325713172621E-004  1.387562288750648E-004 
 1.405015673759309E-004  1.422688595325524E-004  1.440583814879238E-004  1.458704128584919E-004 
 1.477052367778448E-004  1.495631399409527E-004  1.514444126489653E-004  1.533493488545700E-004 
 1.552782462079251E-004  1.572314061031662E-004  1.592091337255006E-004  1.612117380988933E-004 
 1.632395321343516E-004  1.652928326788194E-004  1.673719605646841E-004  1.694772406599078E-004 
 1.716090019187891E-004  1.737675774333611E-004  1.759533044854401E-004  1.781665245993248E-004 
 1.804075835951605E-004  1.826768316429753E-004  1.849746233173930E-004  1.873013176530379E-004 
 1.896572782006337E-004  1.920428730838089E-004  1.944584750566179E-004  1.969044615617831E-004 
 1.993812147896727E-004  2.018891217380175E-004  2.044285742723802E-004  2.069999691873866E-004 
 2.096037082687227E-004  2.122401983559182E-004  2.149098514059128E-004  2.176130845574268E-004 
 2.203503201961406E-004  2.231219860206909E-004  2.259285151095023E-004  2.287703459884547E-004 
 2.316479226994045E-004  2.345616948695678E-004  2.375121177817736E-004  2.404996524456051E-004 
 2.435247656694316E-004  2.465879301333487E-004  2.496896244630366E-004  2.528303333045439E-004 
 2.560105474000176E-004  2.592307636643800E-004  2.624914852629740E-004  2.657932216901837E-004 
 2.691364888490426E-004  2.725218091318468E-004  2.759497115017778E-004  2.794207315755547E-004 
 2.829354117071267E-004  2.864943010724141E-004  2.900979557551214E-004  2.937469388336243E-004 
 2.974418204689526E-004  3.011831779938797E-004  3.049715960031297E-004  3.088076664447251E-004 
 3.126919887124765E-004  3.166251697396407E-004  3.206078240937563E-004  3.246405740726676E-004 
 3.287240498017644E-004  3.328588893324371E-004  3.370457387417743E-004  3.412852522335153E-004 
 3.455780922402675E-004  3.499249295270167E-004  3.543264432959323E-004  3.587833212924954E-004 
 3.632962599129610E-004  3.678659643131697E-004  3.724931485187317E-004  3.771785355365930E-004 
 3.819228574680074E-004  3.867268556229294E-004  3.915912806358442E-004  3.965168925830572E-004 
 4.015044611014561E-004  4.065547655087693E-004  4.116685949253354E-004  4.168467483974046E-004 
 4.220900350219925E-004  4.273992740733013E-004  4.327752951307345E-004  4.382189382085203E-004 
 4.437310538869643E-004  4.493125034453562E-004  4.549641589965448E-004  4.606869036232082E-004 
 4.664816315158377E-004  4.723492481124556E-004  4.782906702400933E-004  4.843068262580459E-004 
 4.903986562029310E-004  4.965671119355720E-004  5.028131572897261E-004  5.091377682226884E-004 
 5.155419329677843E-004  5.220266521887845E-004  5.285929391362608E-004  5.352418198059075E-004 
 5.419743330988573E-004  5.487915309840090E-004  5.556944786624017E-004  5.626842547336549E-004 
 5.697619513645000E-004  5.769286744594358E-004  5.841855438335263E-004  5.915336933873753E-004 
 5.989742712843010E-004  6.065084401297371E-004  6.141373771528949E-004  6.218622743907050E-004 
 6.296843388740769E-004  6.376047928165011E-004  6.456248738050195E-004  6.537458349936043E-004 
 6.619689452989630E-004  6.702954895988106E-004  6.787267689326353E-004  6.872641007049855E-004 
 6.959088188913210E-004  7.046622742464456E-004  7.135258345155676E-004  7.225008846480124E-004 
 7.315888270136228E-004  7.407910816218834E-004  7.501090863437984E-004  7.595442971365632E-004 
 7.690981882710608E-004  7.787722525622179E-004  7.885680016022626E-004  7.984869659969116E-004 
 8.085306956045318E-004  8.187007597783090E-004  8.289987476114608E-004  8.394262681855381E-004 
 8.499849508218457E-004  8.606764453360265E-004  8.715024222958513E-004  8.824645732822449E-004 
 8.935646111536025E-004  9.048042703134240E-004  9.161853069813203E-004  9.277094994674261E-004 
 9.393786484502631E-004  9.511945772581015E-004  9.631591321538569E-004  9.752741826235737E-004 
 9.875416216685354E-004  9.999633661010529E-004  1.012541356843965E-003  1.025277559233915E-003 
 1.038173963328439E-003  1.051232584216913E-003  1.064455462335422E-003  1.077844663785572E-003 
 1.091402280657330E-003  1.105130431355916E-003  1.119031260932806E-003  1.133106941420905E-003 
 1.147359672173924E-003  1.161791680210042E-003  1.176405220559877E-003  1.191202576618837E-003 
 1.206186060503916E-003  1.221358013414954E-003  1.236720806000460E-003  1.252276838728031E-003 
 1.268028542259429E-003  1.283978377830381E-003  1.300128837635143E-003  1.316482445215918E-003 
 1.333041755857163E-003  1.349809356984853E-003  1.366787868570782E-003  1.383979943541927E-003 
 1.401388268194979E-003  1.419015562616084E-003  1.436864581105855E-003  1.454938112609749E-003 
 1.473238981153833E-003  1.491770046286051E-003  1.510534203523030E-003  1.529534384802514E-003 
 1.548773558941487E-003  1.568254732100048E-003  1.587980948251140E-003  1.607955289656167E-003 
 1.628180877346613E-003  1.648660871611705E-003  1.669398472492213E-003  1.690396920280466E-003 
 1.711659496026652E-003  1.733189522051489E-003  1.754990362465349E-003  1.777065423693900E-003 
 1.799418155010371E-003  1.822052049074507E-003  1.844970642478303E-003  1.868177516298609E-003 
 1.891676296656674E-003  1.915470655284738E-003  1.939564310099744E-003  1.963961025784276E-003 
 1.988664614374799E-003  2.013678935857287E-003  2.039007898770364E-003  2.064655460816018E-003 
 2.090625629477999E-003  2.116922462647995E-003  2.143550069259694E-003  2.170512609930801E-003 
 2.197814297613151E-003  2.225459398250992E-003  2.253452231447540E-003  2.281797171139938E-003 
 2.310498646282678E-003  2.339561141539647E-003  2.368989197984855E-003  2.398787413811992E-003 
 2.428960445052910E-003  2.459513006305127E-003  2.490449871468496E-003  2.521775874491142E-003 
 2.553495910124768E-003  2.585614934689481E-003  2.618137966848213E-003  2.651070088390909E-003 
 2.684416445028560E-003  2.718182247197231E-003  2.752372770872215E-003  2.786993358392394E-003 
 2.822049419295003E-003  2.857546431160881E-003  2.893489940470349E-003  2.929885563469868E-003 
 2.966738987049578E-003  3.004055969631893E-003  3.041842342071262E-003  3.080104008565253E-003 
 3.118846947577105E-003  3.158077212769859E-003  3.197800933952268E-003  3.238024318036582E-003 
 3.278753650008399E-003  3.319995293908708E-003  3.361755693828274E-003  3.404041374914545E-003 
 3.446858944391222E-003  3.490215092590647E-003  3.534116593999190E-003  3.578570308315761E-003 
 3.623583181523665E-003  3.669162246975918E-003  3.715314626494228E-003  3.762047531481796E-003 
 3.809368264050103E-003  3.857284218159888E-003  3.905802880776468E-003  3.954931833039581E-003 
 4.004678751447983E-003  4.055051409058880E-003  4.106057676702510E-003  4.157705524211962E-003 
 4.210003021668487E-003  4.262958340662469E-003  4.316579755570236E-003  4.370875644846960E-003 
 4.425854492335808E-003  4.481524888593550E-003  4.537895532232872E-003  4.594975231281525E-003 
 4.652772904558615E-003  4.711297583068184E-003  4.770558411410311E-003  4.830564649210002E-003 
 4.891325672563993E-003  4.952850975505800E-003  5.015150171489184E-003  5.078232994890262E-003 
 5.142109302528540E-003  5.206789075207042E-003  5.272282419271838E-003  5.338599568191190E-003 
 5.405750884154530E-003  5.473746859691611E-003  5.542598119311942E-003  5.612315421164919E-003 
 5.682909658720798E-003  5.754391862472816E-003  5.826773201660753E-003  5.900064986016111E-003 
 5.974278667529309E-003  6.049425842239073E-003  6.125518252044335E-003  6.202567786538947E-003 
 6.280586484869428E-003  6.359586537616122E-003  6.439580288697999E-003  6.520580237301406E-003 
 6.602599039833122E-003  6.685649511897903E-003  6.769744630300977E-003  6.854897535075688E-003 
 6.941121531536648E-003  7.028430092358737E-003  7.116836859682209E-003  7.206355647244323E-003 
 7.297000442537764E-003  7.388785408996208E-003  7.481724888207414E-003  7.575833402154090E-003 
 7.671125655483006E-003  7.767616537802618E-003  7.865321126009591E-003  7.964254686644632E-003 
 8.064432678277864E-003  8.165870753924293E-003  8.268584763489614E-003  8.372590756246790E-003 
 8.477904983343805E-003  8.584543900342899E-003  8.692524169791813E-003  8.801862663827334E-003 
 8.912576466811598E-003  9.024682878001587E-003  9.138199414252125E-003  9.253143812752950E-003 
 9.369534033800185E-003  9.487388263602658E-003  9.606724917123572E-003  9.727562640957817E-003 
 9.849920316245592E-003  9.973817061622599E-003  1.009927223620736E-002  1.022630544262617E-002 
 1.035493653007597E-002  1.048518559742588E-002  1.061707299635766E-002  1.075061933454572E-002 
 1.088584547887711E-002  1.102277255871200E-002  1.116142196918520E-002  1.130181537454917E-002 
 1.144397471155912E-002  1.158792219290071E-002  1.173368031066076E-002  1.188127183984171E-002 
 1.203071984192026E-002  1.218204766845079E-002  1.233527896471410E-002  1.249043767341197E-002 
 1.264754803840830E-002  1.280663460851726E-002  1.296772224133910E-002  1.313083610714419E-002 
 1.329600169280592E-002  1.346324480578307E-002  1.363259157815231E-002  1.380406847069135E-002 
 1.397770227701355E-002  1.415352012775438E-002  1.433154949481073E-002  1.451181819563342E-002 
 1.469435439757368E-002  1.487918662228447E-002  1.506634375017693E-002  1.525585502493307E-002 
 1.544775005807514E-002  1.564205883359246E-002  1.583881171262656E-002  1.603803943821507E-002 
 1.623977314009544E-002  1.644404433956903E-002  1.665088495442633E-002  1.686032730393426E-002 
 1.707240411388604E-002  1.728714852171468E-002  1.750459408167082E-002  1.772477477006558E-002 
 1.794772499057951E-002  1.817347957963815E-002  1.840207381185534E-002  1.863354340554494E-002 
 1.886792452830189E-002  1.910525380265348E-002  1.934556831178168E-002  1.958890560531746E-002 
 1.983530370520802E-002  2.008480111165772E-002  2.033743680914400E-002  2.059325027250853E-002 
 2.085228147312544E-002  2.111457088514682E-002  2.138015949182691E-002  2.164908879192590E-002 
 2.192140080619403E-002  2.219713808393757E-002  2.247634370966715E-002  2.275906130982983E-002 
 2.304533505962585E-002  2.333520968991104E-002  2.362873049418613E-002  2.392594333567397E-002 
 2.422689465448569E-002  2.453163147487719E-002  2.484020141259664E-002  2.515265268232459E-002 
 2.546903410520763E-002  2.578939511648672E-002  2.611378577322173E-002  2.644225676211271E-002 
 2.677485940741996E-002  2.711164567898350E-002  2.745266820034342E-002  2.779798025696256E-002 
 2.814763580455228E-002  2.850168947750327E-002  2.886019659742226E-002  2.922321318177610E-002 
 2.959079595264470E-002  2.996300234558385E-002  3.033989051859969E-002  3.072151936123606E-002 
 3.110794850377600E-002  3.149923832655931E-002  3.189544996941683E-002  3.229664534122387E-002 
 3.270288712957352E-002  3.311423881057167E-002  3.353076465875545E-002  3.395252975713602E-002 
 3.437960000736812E-002  3.481204214004719E-002  3.524992372513627E-002  3.569331318252397E-002 
 3.614227979271503E-002  3.659689370765576E-002  3.705722596169526E-002  3.752334848268475E-002 
 3.799533410321655E-002  3.847325657200407E-002  3.895719056540543E-002  3.944721169909164E-002 
 3.994339653986179E-002  4.044582261760678E-002  4.095456843742346E-002  4.146971349188119E-002 
 4.199133827344281E-002  4.251952428704167E-002  4.305435406281706E-002  4.359591116900952E-002 
 4.414428022501872E-002  4.469954691462531E-002  4.526179799937921E-002  4.583112133215639E-002 
 4.640760587088586E-002  4.699134169244967E-002  4.758242000675754E-002  4.818093317099862E-002 
 4.878697470407258E-002  4.940063930120192E-002  5.002202284872845E-002  5.065122243909570E-002 
 5.128833638601972E-002  5.193346423985108E-002  5.258670680312928E-002  5.324816614633395E-002 
 5.391794562383331E-002  5.459614989003323E-002  5.528288491573028E-002  5.597825800466922E-002 
 5.668237781031004E-002  5.739535435280501E-002  5.811729903618926E-002  5.884832466578859E-002 
 5.958854546584470E-002  6.033807709736367E-002  6.109703667618799E-002  6.186554279129573E-002 
 6.264371552333116E-002  6.343167646336662E-002  6.422954873190222E-002  6.503745699810334E-002 
 6.585552749928003E-002  6.668388806061271E-002  6.752266811512415E-002  6.837199872390454E-002 
 6.923201259658956E-002  7.010284411209630E-002  7.098462933962103E-002  7.187750605989929E-002 
 7.278161378673534E-002  7.369709378880103E-002  7.462408911170901E-002  7.556274460036470E-002 
 7.651320692159766E-002  7.747562458707946E-002  7.845014797652851E-002  7.943692936120679E-002 
 8.043612292771363E-002  8.144788480207631E-002  8.247237307414636E-002  8.350974782230071E-002 
 8.456017113845404E-002  8.562380715338694E-002  8.670082206239038E-002  8.779138415123526E-002 
 8.889566382246687E-002  9.001383362203023E-002  9.114606826623177E-002  9.229254466903786E-002 
 9.345344196971912E-002  9.462894156084081E-002  9.581922711660532E-002  9.702448462155266E-002 
 9.824490239961982E-002  9.948067114356773E-002  1.007319839447770E-001  1.019990363234182E-001 
 1.032820262590039E-001  1.045811542213212E-001  1.058966232017576E-001  1.072286387450179E-001 
 1.085774089812402E-001  1.099431446585185E-001  1.113260591758305E-001  1.127263686163834E-001 
 1.141442917813764E-001  1.155800502241884E-001  1.170338682849976E-001  1.185059731258333E-001 
 1.199965947660722E-001  1.215059661183786E-001  1.230343230250965E-001  1.245819042951025E-001 
 1.261489517411183E-001  1.277357102174957E-001  1.293424276584751E-001  1.309693551169252E-001 
 1.326167468035717E-001  1.342848601267169E-001  1.359739557324616E-001  1.376842975454309E-001 
 1.394161528100123E-001  1.411697921321148E-001  1.429454895214500E-001  1.447435224343477E-001 
 1.465641718171090E-001  1.484077221499036E-001  1.502744614912223E-001  1.521646815228844E-001 
 1.540786775956160E-001  1.560167487751976E-001  1.579791978891937E-001  1.599663315742713E-001 
 1.619784603241113E-001  1.640158985379246E-001  1.660789645695776E-001  1.681679807773347E-001 
 1.702832735742289E-001  1.724251734790628E-001  1.745940151680545E-001  1.767901375271309E-001 
 1.790138837048779E-001  1.812656011661606E-001  1.835456417464130E-001  1.858543617066147E-001 
 1.881921217889571E-001  1.905592872732086E-001  1.929562280337926E-001  1.953833185975792E-001 
 1.978409382024070E-001  2.003294708563398E-001  2.028493053976671E-001  2.054008355556632E-001 
 2.079844600121057E-001  2.106005824635729E-001  2.132496116845206E-001  2.159319615911532E-001 
 2.186480513061019E-001  2.213983052239097E-001  2.241831530773471E-001  2.270030300045573E-001 
 2.298583766170467E-001  2.327496390685333E-001  2.356772691246568E-001  2.386417242335702E-001 
 2.416434675974159E-001  2.446829682447006E-001  2.477607011035854E-001  2.508771470760903E-001 
 2.540327931132398E-001  2.572281322911465E-001  2.604636638880584E-001  2.637398934623707E-001 
 2.670573329316190E-001  2.704165006524707E-001  2.738179215017156E-001  2.772621269582819E-001 
 2.807496551862802E-001  2.842810511190904E-001  2.878568665445128E-001  2.914776601909816E-001 
 2.951439978148712E-001  2.988564522888950E-001  3.026156036916166E-001  3.064220393980917E-001 
 3.102763541716427E-001  3.141791502567952E-001  3.181310374733783E-001  3.221326333118087E-001 
 3.261845630295785E-001  3.302874597489489E-001  3.344419645558800E-001  3.386487266002011E-001 
 3.429084031970390E-001  3.472216599295296E-001  3.515891707528117E-001  3.560116180993375E-001 
 3.604896929855032E-001  3.650240951196192E-001  3.696155330112457E-001  3.742647240818930E-001 
 3.789723947771258E-001  3.837392806800685E-001  3.885661266263403E-001  3.934536868204422E-001 
 3.984027249535967E-001  4.034140143230819E-001  4.084883379530580E-001  4.136264887169145E-001 
 4.188292694611635E-001  4.240974931308797E-001  4.294319828967307E-001  4.348335722835963E-001 
 4.403031053008061E-001  4.458414365740236E-001  4.514494314787764E-001  4.571279662756789E-001 
 4.628779282473467E-001  4.687002158370349E-001  4.745957387890264E-001  4.805654182907754E-001 
 4.866101871168502E-001  4.927309897746791E-001  4.989287826521284E-001  5.052045341669463E-001 
 5.115592249180737E-001  5.179938478388698E-001  5.245094083522583E-001  5.311069245278237E-001 
 5.377874272408928E-001  5.445519603336044E-001  5.514015807780177E-001  5.583373588412638E-001 
 5.653603782527741E-001  5.724717363736219E-001  5.796725443679799E-001  5.869639273767483E-001 
 5.943470246933579E-001  6.018229899417831E-001  6.093929912568061E-001  6.170582114665316E-001 
 6.248198482772134E-001  6.326791144603956E-001  6.406372380424067E-001  6.486954624962495E-001 
 6.568550469358877E-001  6.651172663129913E-001  6.734834116161492E-001  6.819547900725836E-001 
 6.905327253524158E-001  6.992185577754829E-001  7.080136445207735E-001  7.169193598384869E-001 
 7.259370952647574E-001  7.350682598390947E-001  7.443142803245387E-001  7.536766014306026E-001 
 7.631566860390082E-001  7.727560154322605E-001  7.824760895251097E-001  7.923184270989059E-001 
 8.022845660389204E-001  8.123760635746408E-001  8.225944965230850E-001  8.329414615351941E-001 
 8.434185753452992E-001  8.540274750237502E-001  8.647698182327078E-001  8.756472834851505E-001 
 8.866615704071575E-001  8.978144000034661E-001  9.091075149263927E-001  9.205426797481219E-001 
 9.321216812364186E-001  9.438463286338267E-001  9.557184539403522E-001  9.677399121997302E-001 
 9.799125817892734E-001  9.922383647133670E-001  1.004719186900674E+000  1.017356998505048E+000 
 1.030153774210269E+000  1.043111513538575E+000  1.056232241163097E+000  1.069518007224224E+000 
 1.082970887649929E+000  1.096592984480151E+000  1.110386426195235E+000  1.124353368048509E+000 
 1.138495992403058E+000  1.152816509072705E+000  1.167317155667319E+000  1.182000197942432E+000 
 1.196867930153271E+000  1.211922675413244E+000  1.227166786056925E+000  1.242602644007617E+000 
 1.258232661149532E+000  1.274059279704644E+000  1.290084972614306E+000  1.306312243925635E+000 
 1.322743629182790E+000  1.339381695823150E+000  1.356229043578473E+000  1.373288304881127E+000 
 1.390562145275393E+000  1.408053263833979E+000  1.425764393579749E+000  1.443698301912753E+000 
 1.461857791042660E+000  1.480245698426588E+000  1.498864897212478E+000  1.517718296688025E+000 
 1.536808842735248E+000  1.556139518290814E+000  1.575713343812100E+000  1.595533377749170E+000 
 1.615602717022654E+000  1.635924497507640E+000  1.656501894523678E+000  1.677338123330912E+000 
 1.698436439632487E+000  1.719800140083254E+000  1.741432562804866E+000  1.763337087907392E+000 
 1.785517138017437E+000  1.807976178812960E+000  1.830717719564782E+000  1.853745313684907E+000 
 1.877062559281773E+000  1.900673099722436E+000  1.924580624201881E+000  1.948788868319450E+000 
 1.973301614662533E+000  1.998122693397623E+000  2.023255982868765E+000  2.048705410203577E+000 
 2.074474951926860E+000  2.100568634581931E+000  2.126990535359798E+000  2.153744782736208E+000 
 2.180835557116748E+000  2.208267091490036E+000  2.236043672089119E+000  2.264169639061237E+000 
 2.292649387145943E+000  2.321487366361822E+000  2.350688082701801E+000  2.380256098837211E+000 
 2.410196034830737E+000  2.440512568858282E+000  2.471210437939974E+000  2.502294438680314E+000 
 2.533769428017651E+000  2.565640323983116E+000  2.597912106469033E+000  2.630589818007079E+000 
 2.663678564556170E+000  2.697183516300265E+000  2.731109908456248E+000  2.765463042091909E+000 
 2.800248284954276E+000  2.835471072308321E+000  2.871136907786219E+000  2.907251364247338E+000 
 2.943820084648964E+000  2.980848782928065E+000  3.018343244894088E+000  3.056309329132988E+000 
 3.094752967922679E+000  3.133680168159926E+000  3.173097012298971E+000  3.213009659301908E+000 
 3.253424345601025E+000  3.294347386073292E+000  3.335785175027028E+000  3.377744187201069E+000 
 3.420230978776441E+000  3.463252188400754E+000  3.506814538225553E+000  3.550924834956613E+000 
 3.595589970917547E+000  3.640816925126728E+000  3.686612764387754E+000  3.732984644393693E+000 
 3.779939810845129E+000  3.827485600582357E+000  3.875629442731761E+000  3.924378859866616E+000 
 3.973741469182543E+000  4.023724983687662E+000  4.074337213407813E+000  4.125586066606871E+000 
 4.177479551022399E+000  4.230025775116930E+000  4.283232949344870E+000  4.337109387435450E+000 
 4.391663507691741E+000  4.446903834306012E+000  4.502838998691695E+000  4.559477740832015E+000 
 4.616828910645667E+000  4.674901469369629E+000  4.733704490959332E+000  4.793247163506552E+000 
 4.853538790675000E+000  4.914588793154090E+000  4.976406710130929E+000  5.039002200780796E+000 
 5.102385045776471E+000  5.166565148816425E+000  5.231552538172339E+000  5.297357368256029E+000 
 5.363989921206056E+000  5.431460608494403E+000  5.499779972553211E+000  5.568958688422119E+000 
 5.639007565416238E+000  5.709937548815091E+000  5.781759721572917E+000  5.854485306050310E+000 
 5.928125665767816E+000  6.002692307181473E+000  6.078196881480689E+000  6.154651186408836E+000 
 6.232067168106584E+000  6.310456922978585E+000  6.389832699583539E+000  6.470206900548007E+000 
 6.551592084504436E+000  6.634000968053374E+000  6.717446427750549E+000  6.801941502118825E+000 
 6.887499393685450E+000  6.974133471045080E+000  7.061857270948532E+000  7.150684500418029E+000 
 7.240629038888910E+000  7.331704940378279E+000  7.423926435681065E+000  7.517307934593508E+000 
 7.611864028164813E+000  7.707609490976991E+000  7.804559283453374E+000  7.902728554196307E+000 
 8.002132642354049E+000  8.102787080017620E+000  8.204707594647710E+000  8.307910111532054E+000 
 8.412410756273916E+000  8.518225857311613E+000  8.625371948469981E+000  8.733865771543766E+000 
 8.843724278913529E+000  8.954964636194584E+000  9.067604224919044E+000  9.181660645251835E+000 
 9.297151718740693E+000  9.414095491100793E+000  9.532510235034518E+000  9.652414453086495E+000 
 9.773826880534754E+000  9.896766488318121E+000  1.002125248600040E+001  1.014730432477203E+001 
 1.027494170048923E+001  1.040418455675167E+001  1.053505308801860E+001  1.066756774276425E+001 
 1.080174922667305E+001  1.093761850587484E+001  1.107519681022092E+001  1.121450563660129E+001 
 1.135556675230344E+001  1.149840219841374E+001  1.164303429326120E+001  1.178948563590492E+001 
 1.193777910966517E+001  1.208793788569888E+001  1.223998542662036E+001  1.239394549016717E+001 
 1.254984213291249E+001  1.270769971402395E+001  1.286754289906973E+001  1.302939666387272E+001 
 1.319328629841294E+001  1.335923741077923E+001  1.352727593117056E+001  1.369742811594757E+001 
 1.386972055173536E+001  1.404418015957749E+001  1.422083419914267E+001  1.439971027298399E+001 
 1.458083633085189E+001  1.476424067406145E+001  1.494995195991438E+001  1.513799920617696E+001 
 1.532841179561404E+001  1.552121948058005E+001  1.571645238766809E+001  1.591414102241705E+001 
 1.611431627407833E+001  1.631700942044230E+001  1.652225213272540E+001  1.673007648051904E+001 
 1.694051493680035E+001  1.715360038300627E+001  1.736936611417134E+001  1.758784584412997E+001 
 1.780907371078452E+001  1.803308428143920E+001  1.825991255820145E+001  1.848959398345102E+001 
 1.872216444537785E+001  1.895766028358985E+001  1.919611829479078E+001  1.943757573853007E+001 
 1.968207034302461E+001  1.992964031105368E+001  2.018032432592857E+001  2.043416155753653E+001 
 2.069119166846148E+001  2.095145482018123E+001  2.121499167934265E+001  2.148184342411625E+001 
 2.175205175062997E+001  2.202565887948463E+001  2.230270756235079E+001  2.258324108864874E+001 
 2.286730329231280E+001  2.315493855864013E+001  2.344619183122634E+001  2.374110861898786E+001 
 2.403973500327272E+001  2.434211764506110E+001  2.464830379225590E+001  2.495834128706561E+001 