<UPF version="2.0.1">
  <PP_INFO>
Generated using "atomic" code by A. Dal Corso  v.6.2.2
Author: ADC
Generation date:  4May2018
Pseudopotential type: USPP
Element: Rb
Functional: PBE
    Suggested minimum cutoff for wavefunctions:  35. Ry
    Suggested minimum cutoff for charge density: 259. Ry
    The Pseudo was generated with a Scalar-Relativistic Calculation
    Local Potential by smoothing AE potential with Bessel fncs, cutoff radius:   1.5000
    Pseudopotential contains additional information for GIPAW reconstruction.
    Valence configuration:
    nl pn  l   occ       Rcut    Rcut US       E pseu
    4S  1  0  2.00      1.300      1.500    -2.344096
    5S  2  0  1.00      1.300      1.500    -0.164001
    4P  2  1  6.00      1.400      1.600    -1.173319
    5P  3  1  0.00      1.400      1.600    -0.055039
    Generation configuration:
    4S  1  0  2.00      1.300      1.500    -2.344099
    5S  2  0  1.00      1.300      1.500    -0.164004
    4P  2  1  6.00      1.400      1.600    -1.173322
    5P  3  1  0.00      1.400      1.600    -0.055032
    4D  3  2  0.00      1.200      1.800     0.050000
    4D  3  2  0.00      1.200      1.800     1.000000
    Pseudization used: troullier-martins

    <PP_INPUTFILE>
 &amp;input
   title='Rb',
   zed=37.,
   rel=1,
   config='[Kr] 5s1 5p0 4d-1',
   iswitch=3,
   dft='PBE'
 /
 &amp;inputp
   lpaw=.false.,
   use_xsd=.FALSE.,
   pseudotype=3,
   file_pseudopw='Rb.pbe-spn-rrkjus_psl.1.0.0.UPF',
   author='ADC',
   lloc=-1,
   rcloc=1.5,
   which_augfun='PSQ',
   rmatch_augfun_nc=.true.,
   nlcc=.true.,
   new_core_ps=.true.,
   rcore=1.2,
   tm=.true.
 /
6
4S  1  0  2.00  0.00  1.30  1.50  0.0
5S  2  0  1.00  0.00  1.30  1.50  0.0
4P  2  1  6.00  0.00  1.40  1.60  0.0
5P  3  1  0.00  0.00  1.40  1.60  0.0
4D  3  2  0.00  0.05  1.20  1.80  0.0
4D  3  2  0.00  1.00  1.20  1.80  0.0
</PP_INPUTFILE>
  </PP_INFO>
  <!--
 END OF HUMAN READABLE SECTION 
-->
  <PP_HEADER generated="Generated using &quot;atomic&quot; code by A. Dal Corso  v.6.2.2" author="ADC" date=" 4May2018" comment="" element="Rb" pseudo_type="USPP" relativistic="scalar" is_ultrasoft="true" is_paw="false" is_coulomb="false" has_so="false" has_wfc="false" has_gipaw="true" paw_as_gipaw="false" core_correction="true" functional="PBE" z_valence="9.000000000000e0" total_psenergy="-5.911282873347e1" wfc_cutoff="3.459103011510e1" rho_cutoff="2.587177581328e2" l_max="2" l_max_rho="4" l_local="-1" mesh_size="1219" number_of_wfc="4" number_of_proj="6"/>
  <PP_MESH dx="1.250000000000e-2" mesh="1219" xmin="-7.000000000000e0" rmax="1.000000000000e2" zmesh="3.700000000000e1">
    <PP_R>
      2.464545852850044e-5 2.495546023429790e-5 2.526936128152925e-5 2.558721071787173e-5
      2.590905820794648e-5 2.623495404107862e-5 2.656494913915510e-5 2.689909506458138e-5
      2.723744402833812e-5 2.758004889813932e-5 2.792696320669289e-5 2.827824116006536e-5
      2.863393764615163e-5 2.899410824325127e-5 2.935880922875291e-5 2.972809758792752e-5
      3.010203102283252e-5 3.048066796132789e-5 3.086406756620561e-5 3.125228974443400e-5
      3.164539515651823e-5 3.204344522597872e-5 3.244650214894867e-5 3.285462890389229e-5
      3.326788926144543e-5 3.368634779437972e-5 3.411006988769228e-5 3.453912174882228e-5
      3.497357041799590e-5 3.541348377870162e-5 3.585893056829707e-5 3.630998038874937e-5
      3.676670371751065e-5 3.722917191853020e-5 3.769745725340537e-5 3.817163289267247e-5
      3.865177292723985e-5 3.913795237996474e-5 3.963024721737576e-5 4.012873436154289e-5
      4.063349170209656e-5 4.114459810839815e-5 4.166213344186351e-5 4.218617856844141e-5
      4.271681537124911e-5 4.325412676336660e-5 4.379819670079208e-5 4.434911019556016e-5
      4.490695332902525e-5 4.547181326531192e-5 4.604377826493443e-5 4.662293769858763e-5
      4.720938206111135e-5 4.780320298563029e-5 4.840449325787215e-5 4.901334683066528e-5
      4.962985883861911e-5 5.025412561298921e-5 5.088624469672911e-5 5.152631485973179e-5
      5.217443611426241e-5 5.283070973058559e-5 5.349523825278909e-5 5.416812551480645e-5
      5.484947665664146e-5 5.553939814079618e-5 5.623799776890621e-5 5.694538469858470e-5
      5.766166946047859e-5 5.838696397553931e-5 5.912138157251041e-5 5.986503700563559e-5
      6.061804647258927e-5 6.138052763263262e-5 6.215259962499826e-5 6.293438308750576e-5
      6.372600017541171e-5 6.452757458049659e-5 6.533923155039199e-5 6.616109790815089e-5
      6.699330207206375e-5 6.783597407572428e-5 6.868924558834753e-5 6.955324993534324e-5
      7.042812211914860e-5 7.131399884032220e-5 7.221101851890404e-5 7.311932131604395e-5
      7.403904915590185e-5 7.497034574782402e-5 7.591335660879763e-5 7.686822908618830e-5
      7.783511238076333e-5 7.881415757000454e-5 7.980551763171475e-5 8.080934746792055e-5
      8.182580392907607e-5 8.285504583857142e-5 8.389723401754889e-5 8.495253131003189e-5
      8.602110260836938e-5 8.710311487900073e-5 8.819873718854454e-5 8.930814073021573e-5
      9.043149885057492e-5 9.156898707661385e-5 9.272078314318200e-5 9.388706702075822e-5
      9.506802094357102e-5 9.626382943807377e-5 9.747467935177651e-5 9.870075988244171e-5
      9.994226260764682e-5 1.011993815147184e-4 1.024723130310434e-4 1.037612560547612e-4
      1.050664119858413e-4 1.063879847575536e-4 1.077261808683322e-4 1.090812094140421e-4
      1.104532821206504e-4 1.118426133773091e-4 1.132494202698535e-4 1.146739226147227e-4
      1.161163429933065e-4 1.175769067867235e-4 1.190558422110380e-4 1.205533803529190e-4
      1.220697552057477e-4 1.236052037061804e-4 1.251599657711688e-4 1.267342843354490e-4
      1.283284053894994e-4 1.299425780179780e-4 1.315770544386423e-4 1.332320900417582e-4
      1.349079434300059e-4 1.366048764588869e-4 1.383231542776392e-4 1.400630453706682e-4
      1.418248215994969e-4 1.436087582452453e-4 1.454151340516438e-4 1.472442312685871e-4
      1.490963356962371e-4 1.509717367296784e-4 1.528707274041381e-4 1.547936044407725e-4
      1.567406682930308e-4 1.587122231936014e-4 1.607085772019485e-4 1.627300422524475e-4
      1.647769342031254e-4 1.668495728850136e-4 1.689482821521232e-4 1.710733899320472e-4
      1.732252282771995e-4 1.754041334166997e-4 1.776104458089084e-4 1.798445101946263e-4
      1.821066756509586e-4 1.843972956458602e-4 1.867167280933657e-4 1.890653354095138e-4
      1.914434845689764e-4 1.938515471623973e-4 1.962898994544565e-4 1.987589224426604e-4
      2.012590019168740e-4 2.037905285196020e-4 2.063538978070260e-4 2.089495103108127e-4
      2.115777716006965e-4 2.142390923478512e-4 2.169338883890584e-4 2.196625807916814e-4
      2.224255959194603e-4 2.252233654991300e-4 2.280563266878792e-4 2.309249221416580e-4
      2.338296000843415e-4 2.367708143777683e-4 2.397490245926556e-4 2.427646960804086e-4
      2.458183000458330e-4 2.489103136207605e-4 2.520412199386035e-4 2.552115082098436e-4
      2.584216737984731e-4 2.616722182993971e-4 2.649636496168061e-4 2.682964820435409e-4
      2.716712363414482e-4 2.750884398227532e-4 2.785486264324528e-4 2.820523368317434e-4
      2.856001184825042e-4 2.891925257328359e-4 2.928301199036799e-4 2.965134693765267e-4
      3.002431496822245e-4 3.040197435909098e-4 3.078438412030642e-4 3.117160400417196e-4
      3.156369451458231e-4 3.196071691647735e-4 3.236273324541519e-4 3.276980631726513e-4
      3.318199973802280e-4 3.359937791374890e-4 3.402200606063243e-4 3.444995021518127e-4
      3.488327724454020e-4 3.532205485693913e-4 3.576635161227282e-4 3.621623693281305e-4
      3.667178111405657e-4 3.713305533570849e-4 3.760013167280438e-4 3.807308310697226e-4
      3.855198353783582e-4 3.903690779456182e-4 3.952793164755195e-4 4.002513182028217e-4
      4.052858600129112e-4 4.103837285631878e-4 4.155457204059847e-4 4.207726421130293e-4
      4.260653104014727e-4 4.314245522615034e-4 4.368512050855641e-4 4.423461167992008e-4
      4.479101459935475e-4 4.535441620594854e-4 4.592490453234888e-4 4.650256871851726e-4
      4.708749902565815e-4 4.767978685032206e-4 4.827952473868658e-4 4.888680640101706e-4
      4.950172672630860e-4 5.012438179711319e-4 5.075486890455245e-4 5.139328656351961e-4
      5.203973452807277e-4 5.269431380702160e-4 5.335712667971022e-4 5.402827671199846e-4
      5.470786877244429e-4 5.539600904868989e-4 5.609280506405335e-4 5.679836569432981e-4
      5.751280118480317e-4 5.823622316747236e-4 5.896874467849398e-4 5.971048017584445e-4
      6.046154555720433e-4 6.122205817806749e-4 6.199213687007820e-4 6.277190195959887e-4
      6.356147528651111e-4 6.436098022325374e-4 6.517054169409965e-4 6.599028619467578e-4
      6.682034181172812e-4 6.766083824313553e-4 6.851190681817553e-4 6.937368051804443e-4
      7.024629399663608e-4 7.112988360158193e-4 7.202458739555537e-4 7.293054517784458e-4
      7.384789850619613e-4 7.477679071893397e-4 7.571736695735629e-4 7.666977418841379e-4
      7.763416122767413e-4 7.861067876257426e-4 7.959947937596566e-4 8.060071756995599e-4
      8.161454979005001e-4 8.264113444959486e-4 8.368063195453214e-4 8.473320472846185e-4
      8.579901723802150e-4 8.687823601858396e-4 8.797102970027954e-4 8.907756903434425e-4
      9.019802691980024e-4 9.133257843047177e-4 9.248140084234064e-4 9.364467366124602e-4
      9.482257865093253e-4 9.601529986145124e-4 9.722302365791801e-4 9.844593874963305e-4
      9.968423621956759e-4 1.009381095542206e-3 1.022077546738516e-3 1.034933699630937e-3
      1.047951563019514e-3 1.061133170971887e-3 1.074480583141117e-3 1.087995885087510e-3
      1.101681188604493e-3 1.115538632048583e-3 1.129570380673511e-3 1.143778626968549e-3
      1.158165591001086e-3 1.172733520763524e-3 1.187484692524525e-3 1.202421411184690e-3
      1.217546010636698e-3 1.232860854129984e-3 1.248368334640003e-3 1.264070875242135e-3
      1.279970929490295e-3 1.296070981800310e-3 1.312373547838107e-3 1.328881174912800e-3
      1.345596442374701e-3 1.362521962018362e-3 1.379660378490660e-3 1.397014369704038e-3
      1.414586647254929e-3 1.432379956847454e-3 1.450397078722436e-3 1.468640828091824e-3
      1.487114055578575e-3 1.505819647662065e-3 1.524760527129118e-3 1.543939653530684e-3
      1.563360023644283e-3 1.583024671942258e-3 1.602936671065911e-3 1.623099132305620e-3
      1.643515206086972e-3 1.664188082463033e-3 1.685120991612796e-3 1.706317204345902e-3
      1.727780032613718e-3 1.749512830026826e-3 1.771518992379036e-3 1.793801958177990e-3
      1.816365209182426e-3 1.839212270946222e-3 1.862346713369259e-3 1.885772151255234e-3
      1.909492244876476e-3 1.933510700545871e-3 1.957831271195985e-3 1.982457756965463e-3
      2.007394005792808e-3 2.032643914017633e-3 2.058211426989469e-3 2.084100539684235e-3
      2.110315297328464e-3 2.136859796031370e-3 2.163738183424881e-3 2.190954659311709e-3
      2.218513476321589e-3 2.246418940575745e-3 2.274675412359740e-3 2.303287306804780e-3
      2.332259094577581e-3 2.361595302578930e-3 2.391300514651009e-3 2.421379372293641e-3
      2.451836575389528e-3 2.482676882938618e-3 2.513905113801717e-3 2.545526147453424e-3
      2.577544924744585e-3 2.609966448674293e-3 2.642795785171623e-3 2.676038063887197e-3
      2.709698478994696e-3 2.743782290002462e-3 2.778294822575310e-3 2.813241469366666e-3
      2.848627690861198e-3 2.884459016228006e-3 2.920741044184576e-3 2.957479443871594e-3
      2.994679955738755e-3 3.032348392441722e-3 3.070490639750372e-3 3.109112657468444e-3
      3.148220480364784e-3 3.187820219116286e-3 3.227918061262693e-3 3.268520272173425e-3
      3.309633196026539e-3 3.351263256800034e-3 3.393416959275603e-3 3.436100890055015e-3
      3.479321718589304e-3 3.523086198220857e-3 3.567401167238656e-3 3.612273549946771e-3
      3.657710357746290e-3 3.703718690230878e-3 3.750305736296089e-3 3.797478775262653e-3
      3.845245178013883e-3 3.893612408147385e-3 3.942588023141281e-3 3.992179675535050e-3
      4.042395114125274e-3 4.093242185176396e-3 4.144728833646715e-3 4.196863104429811e-3
      4.249653143611559e-3 4.303107199742981e-3 4.357233625129105e-3 4.412040877134010e-3
      4.467537519502339e-3 4.523732223697366e-3 4.580633770255950e-3 4.638251050160510e-3
      4.696593066228247e-3 4.755668934517879e-3 4.815487885754013e-3 4.876059266769483e-3
      4.937392541965805e-3 4.999497294792008e-3 5.062383229242084e-3 5.126060171371225e-3
      5.190538070831195e-3 5.255827002424964e-3 5.321937167680922e-3 5.388878896446895e-3
      5.456662648504203e-3 5.525299015202004e-3 5.594798721112237e-3 5.665172625705345e-3
      5.736431725047111e-3 5.808587153516775e-3 5.881650185546837e-3 5.955632237384703e-3
      6.030544868876482e-3 6.106399785273267e-3 6.183208839060068e-3 6.260984031807808e-3
      6.339737516048589e-3 6.419481597174546e-3 6.500228735360601e-3 6.581991547511373e-3
      6.664782809232611e-3 6.748615456827398e-3 6.833502589317472e-3 6.919457470490002e-3
      7.006493530970043e-3 7.094624370319119e-3 7.183863759160182e-3 7.274225641329295e-3
      7.365724136054395e-3 7.458373540161438e-3 7.552188330308310e-3 7.647183165246839e-3
      7.743372888113244e-3 7.840772528747442e-3 7.939397306041430e-3 8.039262630317317e-3
      8.140384105735198e-3 8.242777532731333e-3 8.346458910487026e-3 8.451444439428483e-3
      8.557750523758200e-3 8.665393774018131e-3 8.774391009685129e-3 8.884759261799031e-3
      8.996515775623775e-3 9.109678013342011e-3 9.224263656783618e-3 9.340290610188500e-3
      9.457777003004201e-3 9.576741192718618e-3 9.697201767728426e-3 9.819177550243555e-3
      9.942687599228172e-3 1.006775121337873e-2 1.019438793413938e-2 1.032261754875538e-2
      1.045246009336490e-2 1.058393585612970e-2 1.071706538040522e-2 1.085186946795045e-2
      1.098836918217836e-2 1.112658585144699e-2 1.126654107239212e-2 1.140825671330177e-2
      1.155175491753316e-2 1.169705810697264e-2 1.184418898553918e-2 1.199317054273189e-2
      1.214402605722221e-2 1.229677910049118e-2 1.245145354051260e-2 1.260807354548239e-2
      1.276666358759499e-2 1.292724844686714e-2 1.308985321500980e-2 1.325450329934882e-2
      1.342122442679486e-2 1.359004264786327e-2 1.376098434074457e-2 1.393407621542606e-2
      1.410934531786530e-2 1.428681903421615e-2 1.446652509510785e-2 1.464849157997803e-2
      1.483274692146018e-2 1.501931990982626e-2 1.520823969748530e-2 1.539953580353846e-2
      1.559323811839153e-2 1.578937690842530e-2 1.598798282072474e-2 1.618908688786772e-2
      1.639272053277388e-2 1.659891557361454e-2 1.680770422878433e-2 1.701911912193542e-2
      1.723319328707497e-2 1.744996017372681e-2 1.766945365215804e-2 1.789170801867120e-2
      1.811675800096324e-2 1.834463876355175e-2 1.857538591326952e-2 1.880903550482816e-2
      1.904562404645173e-2 1.928518850558116e-2 1.952776631465062e-2 1.977339537693626e-2
      2.002211407247886e-2 2.027396126408060e-2 2.052897630337754e-2 2.078719903698841e-2
      2.104866981274067e-2 2.131342948597505e-2 2.158151942592911e-2 2.185298152220143e-2
      2.212785819129683e-2 2.240619238325406e-2 2.268802758835696e-2 2.297340784392969e-2
      2.326237774121779e-2 2.355498243235564e-2 2.385126763742150e-2 2.415127965158151e-2
      2.445506535232324e-2 2.476267220678049e-2 2.507414827915010e-2 2.538954223820205e-2
      2.570890336488417e-2 2.603228156002222e-2 2.635972735211711e-2 2.669129190524005e-2
      2.702702702702703e-2 2.736698517677390e-2 2.771121947363322e-2 2.805978370491420e-2
      2.841273233448716e-2 2.877012051129350e-2 2.913200407796302e-2 2.949843957953925e-2
      2.986948427231482e-2 3.024519613277787e-2 3.062563386667098e-2 3.101085691816412e-2
      3.140092547914280e-2 3.179590049861327e-2 3.219584369222592e-2 3.260081755191840e-2
      3.301088535568027e-2 3.342611117744013e-2 3.384655989707743e-2 3.427229721056001e-2
      3.470338964020923e-2 3.513990454509436e-2 3.558191013155736e-2 3.602947546387036e-2
      3.648267047502713e-2 3.694156597767017e-2 3.740623367515545e-2 3.787674617275605e-2
      3.835317698900698e-2 3.883560056719258e-2 3.932409228697842e-2 3.981872847618961e-2
      4.031958642273706e-2 4.082674438669388e-2 4.134028161252377e-2 4.186027834146305e-2
      4.238681582405863e-2 4.291997633286336e-2 4.345984317529145e-2 4.400650070663543e-2
      4.456003434324670e-2 4.512053057588225e-2 4.568807698321870e-2 4.626276224553690e-2
      4.684467615857828e-2 4.743390964757563e-2 4.803055478146050e-2 4.863470478724890e-2
      4.924645406460837e-2 4.986589820060814e-2 5.049313398465467e-2 5.112825942361541e-2
      5.177137375713235e-2 5.242257747312850e-2 5.308197232350942e-2 5.374966134006193e-2
      5.442574885055343e-2 5.511034049503285e-2 5.580354324233751e-2 5.650546540680694e-2
      5.721621666520742e-2 5.793590807386919e-2 5.866465208603902e-2 5.940256256945143e-2
      6.014975482412078e-2 6.090634560035699e-2 6.167245311700822e-2 6.244819707993256e-2
      6.323369870070249e-2 6.402908071554436e-2 6.483446740451615e-2 6.564998461092673e-2
      6.647575976099867e-2 6.731192188377926e-2 6.815860163130134e-2 6.901593129899802e-2
      6.988404484637423e-2 7.076307791793789e-2 7.165316786439481e-2 7.255445376411005e-2
      7.346707644483907e-2 7.439117850573263e-2 7.532690433961763e-2 7.627440015555944e-2
      7.723381400170720e-2 7.820529578842597e-2 7.918899731172175e-2 8.018507227695860e-2
      8.119367632287654e-2 8.221496704590990e-2 8.324910402481166e-2 8.429624884558907e-2
      8.535656512675050e-2 8.643021854487227e-2 8.751737686048548e-2 8.861820994428848e-2
      8.973288980369055e-2 9.086159060968731e-2 9.200448872407616e-2 9.316176272701288e-2
      9.433359344491464e-2 9.552016397871551e-2 9.672165973247516e-2 9.793826844234975e-2
      9.917018020592558e-2 1.004175875119217e-1 1.016806852702679e-1 1.029596708425585e-1
      1.042547440728912e-1 1.055661073190934e-1 1.068939654843399e-1 1.082385260491711e-1
      1.095999991039101e-1 1.109785973814922e-1 1.123745362907030e-1 1.137880339498368e-1
      1.152193112207790e-1 1.166685917435147e-1 1.181361019710745e-1 1.196220712049172e-1
      1.211267316307585e-1 1.226503183548516e-1 1.241930694407213e-1 1.257552259463640e-1
      1.273370319619120e-1 1.289387346477731e-1 1.305605842732509e-1 1.322028342556488e-1
      1.338657411998679e-1 1.355495649385017e-1 1.372545685724346e-1 1.389810185119538e-1
      1.407291845183743e-1 1.424993397461916e-1 1.442917607857616e-1 1.461067277065180e-1
      1.479445241007353e-1 1.498054371278385e-1 1.516897575592744e-1 1.535977798239445e-1
      1.555298020542089e-1 1.574861261324724e-1 1.594670577383519e-1 1.614729063964412e-1
      1.635039855246744e-1 1.655606124832969e-1 1.676431086244560e-1 1.697517993424099e-1
      1.718870141243738e-1 1.740490866020017e-1 1.762383546035166e-1 1.784551602064982e-1
      1.806998497913317e-1 1.829727740953317e-1 1.852742882675455e-1 1.876047519242442e-1
      1.899645292051162e-1 1.923539888301621e-1 1.947735041573099e-1 1.972234532407524e-1
      1.997042188900176e-1 2.022161887297862e-1 2.047597552604554e-1 2.073353159194710e-1
      2.099432731434264e-1 2.125840344309430e-1 2.152580124063454e-1 2.179656248841318e-1
      2.207072949342607e-1 2.234834509482560e-1 2.262945267061423e-1 2.291409614442265e-1
      2.320231999237270e-1 2.349416925002703e-1 2.378968951942598e-1 2.408892697621280e-1
      2.439192837684900e-1 2.469874106591980e-1 2.500941298353213e-1 2.532399267280523e-1
      2.564252928745548e-1 2.596507259947706e-1 2.629167300691862e-1 2.662238154175833e-1
      2.695724987787764e-1 2.729633033913528e-1 2.763967590754327e-1 2.798734023154512e-1
      2.833937763439884e-1 2.869584312266489e-1 2.905679239480095e-1 2.942228184986527e-1
      2.979236859632866e-1 3.016711046099828e-1 3.054656599805294e-1 3.093079449819222e-1
      3.131985599790108e-1 3.171381128883031e-1 3.211272192729566e-1 3.251665024389605e-1
      3.292565935325263e-1 3.333981316387098e-1 3.375917638812652e-1 3.418381455237627e-1
      3.461379400719741e-1 3.504918193775441e-1 3.549004637429737e-1 3.593645620279132e-1
      3.638848117568029e-1 3.684619192278585e-1 3.730965996234350e-1 3.777895771217743e-1
      3.825415850101570e-1 3.873533657994851e-1 3.922256713402953e-1 3.971592629402417e-1
      4.021549114830501e-1 4.072133975489674e-1 4.123355115367346e-1 4.175220537870818e-1
      4.227738347077884e-1 4.280916749003090e-1 4.334764052879913e-1 4.389288672459150e-1
      4.444499127323530e-1 4.500404044218957e-1 4.557012158402445e-1 4.614332315006989e-1
      4.672373470423693e-1 4.731144693701159e-1 4.790655167962605e-1 4.850914191840718e-1
      4.911931180930559e-1 4.973715669260829e-1 5.036277310783518e-1 5.099625880882401e-1
      5.163771277900451e-1 5.228723524686439e-1 5.294492770161087e-1 5.361089290902793e-1
      5.428523492753424e-1 5.496805912444223e-1 5.565947219242172e-1 5.635958216617144e-1
      5.706849843929898e-1 5.778633178141444e-1 5.851319435543804e-1 5.924919973512561e-1
      5.999446292281530e-1 6.074910036739629e-1 6.151322998250468e-1 6.228697116494757e-1
      6.307044481335870e-1 6.386377334708985e-1 6.466708072533825e-1 6.548049246651616e-1
      6.630413566786317e-1 6.713813902530498e-1 6.798263285356324e-1 6.883774910651647e-1
      6.970362139781908e-1 7.058038502177836e-1 7.146817697449405e-1 7.236713597526529e-1
      7.327740248826461e-1 7.419911874448676e-1 7.513242876397213e-1 7.607747837830987e-1
      7.703441525342518e-1 7.800338891265145e-1 7.898455076009443e-1 7.997805410428914e-1
      8.098405418215412e-1 8.200270818324855e-1 8.303417527433226e-1 8.407861662423691e-1
      8.513619542904856e-1 8.620707693760675e-1 8.729142847732628e-1 8.838941948034101e-1
      8.950122150997922e-1 9.062700828757018e-1 9.176695571958799e-1 9.292124192513848e-1
      9.409004726378932e-1 9.527355436375283e-1 9.647194815042138e-1 9.768541587526197e-1
      9.891414714507578e-1 1.001583339516232e0 1.014181707016243e0 1.026938542471346e0
      1.039855839163031e0 1.052935615445190e0 1.066179915059474e0 1.079590807454647e0
      1.093170388109931e0 1.106920778862427e0 1.120844128238671e0 1.134942611790325e0
      1.149218432434129e0 1.163673820796107e0 1.178311035560095e0 1.193132363820684e0
      1.208140121440564e0 1.223336653412399e0 1.238724334225230e0 1.254305568235486e0
      1.270082790042685e0 1.286058464869830e0 1.302235088948617e0 1.318615189909472e0
      1.335201327176492e0 1.351996092367373e0 1.369002109698342e0 1.386222036394208e0
      1.403658563103554e0 1.421314414319147e0 1.439192348803667e0 1.457295160020745e0
      1.475625676571466e0 1.494186762636337e0 1.512981318422815e0 1.532012280618483e0
      1.551282622849898e0 1.570795356147243e0 1.590553529414796e0 1.610560229907324e0
      1.630818583712488e0 1.651331756239280e0 1.672102952712646e0 1.693135418674295e0
      1.714432440489820e0 1.735997345862215e0 1.757833504351811e0 1.779944327902803e0
      1.802333271376357e0 1.825003833090436e0 1.847959555366439e0 1.871204025082666e0
      1.894740874234807e0 1.918573780503431e0 1.942706467828623e0 1.967142706991885e0
      1.991886316205293e0 2.016941161708133e0 2.042311158370991e0 2.068000270307456e0
      2.094012511493540e0 2.120351946394842e0 2.147022690601658e0 2.174028911472035e0
      2.201374828782923e0 2.229064715389543e0 2.257102897893007e0 2.285493757316378e0
      2.314241729789207e0 2.343351307240673e0 2.372827038101485e0 2.402673528014549e0
      2.432895440554644e0 2.463497497957094e0 2.494484481855619e0 2.525861234029507e0
      2.557632657160112e0 2.589803715596943e0 2.622379436133337e0 2.655364908791894e0
      2.688765287619836e0 2.722585791494301e0 2.756831704937829e0 2.791508378944077e0
      2.826621231813898e0 2.862175750002001e0 2.898177488974177e0 2.934632074075394e0
      2.971545201408746e0 3.008922638725469e0 3.046770226326198e0 3.085093877973487e0
      3.123899581815883e0 3.163193401323565e0 3.202981476235766e0 3.243270023520150e0
      3.284065338344188e0 3.325373795058825e0 3.367201848194472e0 3.409556033469518e0
      3.452442968811595e0 3.495869355391594e0 3.539841978670773e0 3.584367709460990e0
      3.629453504998257e0 3.675106410029868e0 3.721333557915101e0 3.768142171739869e0
      3.815539565445324e0 3.863533144970648e0 3.912130409410300e0 3.961338952185708e0
      4.011166462231800e0 4.061620725198405e0 4.112709624666746e0 4.164441143381323e0
      4.216823364497165e0 4.269864472842904e0 4.323572756199640e0 4.377956606595902e0
      4.433024521618973e0 4.488785105742597e0 4.545247071671499e0 4.602419241702734e0
      4.660310549104171e0 4.718930039510391e0 4.778286872336013e0 4.838390322206937e0
      4.899249780409497e0 4.960874756357837e0 5.023274879079847e0 5.086459898721635e0
      5.150439688071081e0 5.215224244100449e0 5.280823689528404e0 5.347248274401776e0
      5.414508377697077e0 5.482614508942294e0 5.551577309859010e0 5.621407556025153e0
      5.692116158558777e0 5.763714165822866e0 5.836212765151733e0 5.909623284599032e0
      5.983957194707761e0 6.059226110302629e0 6.135441792304814e0 6.212616149569698e0
      6.290761240747630e0 6.369889276168069e0 6.450012619747564e0 6.531143790921535e0
      6.613295466600552e0 6.696480483151091e0 6.780711838401206e0 6.866002693671548e0
      6.952366375831756e0 7.039816379382886e0 7.128366368565926e0 7.218030179496814e0
      7.308821822328460e0 7.400755483439744e0 7.493845527652270e0 7.588106500474852e0
      7.683553130376241e0 7.780200331086576e0 7.878063203927571e0 7.977157040172223e0
      8.077497323434068e0 8.179099732086483e0 8.281980141712557e0 8.386154627585579e0
      8.491639467180924e0 8.598451142719407e0 8.706606343742608e0 8.816121969720765e0
      8.927015132693214e0 9.039303159942298e0 9.153003596700746e0 9.268134208893091e0
      9.384712985911758e0 9.502758143427805e0 9.622288126237274e0 9.743321611143182e0
      9.865877509873755e0 9.989974972037547e0 1.011563338811546e1 1.024287239249069e1
      1.037171186651655e1 1.050217194162294e1 1.063427300246206e1 1.076803569009340e1
      1.090348090520906e1 1.104062981139948e1 1.117950383846024e1 1.132012468574066e1
      1.146251432553418e1 1.160669500651173e1 1.175268925719807e1 1.190051988949186e1
      1.205021000223021e1 1.220178298479772e1 1.235526252078132e1 1.251067259167080e1
      1.266803748060586e1 1.282738177617062e1 1.298873037623539e1 1.315210849184722e1
      1.331754165116910e1 1.348505570346870e1 1.365467682315755e1 1.382643151388065e1
      1.400034661265789e1 1.417644929407731e1 1.435476707454111e1 1.453532781656534e1
      1.471815973313323e1 1.490329139210375e1 1.509075172067530e1 1.528057000990554e1
      1.547277591928843e1 1.566739948138828e1 1.586447110653267e1 1.606402158756401e1
      1.626608210465087e1 1.647068423016022e1 1.667785993359037e1 1.688764158656651e1
      1.710006196789876e1 1.731515426870381e1 1.753295209759132e1 1.775348948591513e1
      1.797680089309086e1 1.820292121198025e1 1.843188577434312e1 1.866373035635823e1
      1.889849118421313e1 1.913620493976485e1 1.937690876627135e1 1.962064027419517e1
      1.986743754708037e1 2.011733914750289e1 2.037038412309625e1 2.062661201265275e1
      2.088606285230135e1 2.114877718176369e1 2.141479605068816e1 2.168416102506430e1
      2.195691419371741e1 2.223309817488493e1 2.251275612287591e1 2.279593173481361e1
      2.308266925746356e1 2.337301349414707e1 2.366700981174178e1 2.396470414777052e1
      2.426614301757887e1 2.457137352160358e1 2.488044335273192e1 2.519340080375374e1
      2.551029477490756e1 2.583117478152102e1 2.615609096174802e1 2.648509408440282e1
      2.681823555689260e1 2.715556743325032e1 2.749714242226787e1 2.784301389573227e1
      2.819323589676498e1 2.854786314826609e1 2.890695106146524e1 2.927055574457936e1
      2.963873401157997e1 3.001154339107041e1 3.038904213527461e1 3.077128922913948e1
      3.115834439955104e1 3.155026812466716e1 3.194712164336735e1 3.234896696482117e1
      3.275586687817779e1 3.316788496237640e1 3.358508559608097e1 3.400753396773936e1
      3.443529608576902e1 3.486843878887131e1 3.530702975647467e1 3.575113751931020e1
      3.620083147011944e1 3.665618187449698e1 3.711725988187006e1 3.758413753661527e1
      3.805688778931610e1 3.853558450816141e1 3.902030249048732e1 3.951111747446485e1
      4.000810615093369e1 4.051134617538573e1 4.102091618009873e1 4.153689578642250e1
      4.205936561722043e1 4.258840730946644e1 4.312410352700133e1 4.366653797344906e1
      4.421579540529533e1 4.477196164513149e1 4.533512359506388e1 4.590536925029303e1
      4.648278771286281e1 4.706746920558262e1 4.765950508612540e1 4.825898786130181e1
      4.886601120151522e1 4.948066995539763e1 5.010306016462970e1 5.073327907894803e1
      5.137142517134002e1 5.201759815343101e1 5.267189899106419e1 5.333442992007644e1
      5.400529446227353e1 5.468459744160489e1 5.537244500054319e1 5.606894461666901e1
      5.677420511946426e1 5.748833670731754e1 5.821145096474217e1 5.894366087981215e1
      5.968508086181653e1 6.043582675913568e1 6.119601587734370e1 6.196576699753671e1
      6.274520039489342e1 6.353443785746805e1 6.433360270521963e1 6.514281980928172e1
      6.596221561147300e1 6.679191814405474e1 6.763205704973584e1 6.848276360192930e1
      6.934417072526497e1 7.021641301635814e1 7.109962676484151e1 7.199394997466033e1
      7.289952238563541e1 7.381648549529860e1 7.474498258100109e1 7.568515872230171e1
      7.663716082363549e1 7.760113763726735e1 7.857723978653590e1 7.956561978938757e1
      8.056643208220889e1 8.157983304395684e1 8.260598102059324e1 8.364503634982743e1
      8.469716138616826e1 8.576252052629341e1 8.684128023473615e1 8.793360906989536e1
      8.903967771037420e1 9.015965898164781e1 9.129372788306851e1 9.244206161520966e1
      9.360483960755284e1 9.478224354652539e1 9.597445740388791e1 9.718166746548132e1
      9.840406236033402e1 9.964183309013498e1 1.008951730590793e2
      </PP_R>
    <PP_RAB>
      3.080682316062555e-7 3.119432529287238e-7 3.158670160191156e-7 3.198401339733966e-7
      3.238632275993311e-7 3.279369255134827e-7 3.320618642394387e-7 3.362386883072674e-7
      3.404680503542265e-7 3.447506112267415e-7 3.490870400836612e-7 3.534780145008170e-7