<UPF version="2.0.1">
  <PP_INFO>
Generated using "atomic" code by A. Dal Corso  v.6.2.2
Author: ADC
Generation date:  4May2018
Pseudopotential type: USPP
Element: Sm
Functional: PBE
    Suggested minimum cutoff for wavefunctions:  34. Ry
    Suggested minimum cutoff for charge density: 195. Ry
    The Pseudo was generated with a Scalar-Relativistic Calculation
    Local Potential by smoothing AE potential with Bessel fncs, cutoff radius:   2.0000
    Pseudopotential contains additional information for GIPAW reconstruction.
    Valence configuration:
    nl pn  l   occ       Rcut    Rcut US       E pseu
    5S  1  0  2.00      1.400      1.700    -3.480513
    6S  2  0  1.50      1.400      1.700    -0.320378
    5P  2  1  6.00      1.400      1.800    -1.957179
    6P  3  1  0.50      1.400      1.800    -0.119872
    5D  3  2  1.00      1.400      2.000    -0.238636
    Generation configuration:
    5S  1  0  2.00      1.400      1.700    -3.480555
    6S  2  0  1.50      1.400      1.700    -0.320387
    5P  2  1  6.00      1.400      1.800    -1.957209
    6P  3  1  0.50      1.400      1.800    -0.119877
    5D  3  2  1.00      1.400      2.000    -0.238652
    5D  3  2  0.00      1.400      2.000     2.000000
    Pseudization used: troullier-martins

    <PP_INPUTFILE>
 &amp;input
   title='Sm',
   zed=62.0,
   rel=1,
   config='[Xe] 4f5.0 5d1.0 6s1.5 6p0.5',
   iswitch=3,
   dft='PBE'
 /
 &amp;inputp
   lpaw=.false.,
   use_xsd=.FALSE.,
   pseudotype=3,
   file_pseudopw='Sm.pbe-spdn-rrkjus_psl.1.0.0.UPF',
   author='ADC',
   lloc=-1,
   rcloc=2.0,
   which_augfun='PSQ',
   rmatch_augfun_nc=.true.,
   nlcc=.true.,
   new_core_ps=.true.,
   rcore=1.1,
   tm=.true.
 /
6
5S  1  0  2.00  0.00  1.40  1.70  0.0
6S  2  0  1.50  0.00  1.40  1.70  0.0
5P  2  1  6.00  0.00  1.40  1.80  0.0
6P  3  1  0.50  0.00  1.40  1.80  0.0
5D  3  2  1.00  0.00  1.40  2.00  0.0
5D  3  2  0.00  2.00  1.40  2.00  0.0
</PP_INPUTFILE>
  </PP_INFO>
  <!--
 END OF HUMAN READABLE SECTION 
-->
  <PP_HEADER generated="Generated using &quot;atomic&quot; code by A. Dal Corso  v.6.2.2" author="ADC" date=" 4May2018" comment="" element="Sm" pseudo_type="USPP" relativistic="scalar" is_ultrasoft="true" is_paw="false" is_coulomb="false" has_so="false" has_wfc="false" has_gipaw="true" paw_as_gipaw="false" core_correction="true" functional="PBE" z_valence="1.100000000000e1" total_psenergy="-1.258126866557e2" wfc_cutoff="3.392750824421e1" rho_cutoff="1.952254858694e2" l_max="2" l_max_rho="4" l_local="-1" mesh_size="1259" number_of_wfc="5" number_of_proj="6"/>
  <PP_MESH dx="1.250000000000e-2" mesh="1259" xmin="-7.000000000000e0" rmax="1.000000000000e2" zmesh="6.200000000000e1">
    <PP_R>
      1.470777363797607e-5 1.489277465595198e-5 1.508010270026745e-5 1.526978704131055e-5
      1.546185731764548e-5 1.565634354064369e-5 1.585327609917320e-5 1.605268576434695e-5
      1.625460369433082e-5 1.645906143921217e-5 1.666609094592963e-5 1.687572456326482e-5
      1.708799504689694e-5 1.730293556452092e-5 1.752057970102996e-5 1.774096146376320e-5
      1.796411528781941e-5 1.819007604143762e-5 1.841887903144528e-5 1.865056000877512e-5
      1.888515517405120e-5 1.912270118324537e-5 1.936323515340485e-5 1.960679466845185e-5
      1.985341778505614e-5 2.010314303858145e-5 2.035600944910669e-5 2.061205652752297e-5
      2.087132428170722e-5 2.113385322277355e-5 2.139968437140309e-5 2.166885926425366e-5
      2.194141996044990e-5 2.221740904815511e-5 2.249686965122579e-5 2.277984543594970e-5
      2.306638061786894e-5 2.335651996868863e-5 2.365030882327264e-5 2.394779308672721e-5
      2.424901924157375e-5 2.455403435501180e-5 2.486288608627339e-5 2.517562269406988e-5
      2.549229304413254e-5 2.581294661684781e-5 2.613763351498882e-5 2.646640447154397e-5
      2.679931085764409e-5 2.713640469058937e-5 2.747773864197700e-5 2.782336604593132e-5
      2.817334090743742e-5 2.852771791077937e-5 2.888655242808500e-5 2.924990052797767e-5
      2.961781898433721e-5 2.999036528517098e-5 3.036759764159642e-5 3.074957499693671e-5
      3.113635703593079e-5 3.152800419405915e-5 3.192457766698704e-5 3.232613942012643e-5
      3.273275219831829e-5 3.314447953563644e-5 3.356138576531499e-5 3.398353602980055e-5
      3.441099629093078e-5 3.484383334024121e-5 3.528211480940138e-5 3.572590918078253e-5
      3.617528579815811e-5 3.663031487753882e-5 3.709106751814413e-5 3.755761571351151e-5
      3.803003236274569e-5 3.850839128190925e-5 3.899276721555650e-5 3.948323584841262e-5
      3.997987381719934e-5 4.048275872260965e-5 4.099196914143319e-5 4.150758463883387e-5
      4.202968578078223e-5 4.255835414664389e-5 4.309367234192662e-5 4.363572401118753e-5
      4.418459385110271e-5 4.474036762370143e-5 4.530313216976633e-5 4.587297542240271e-5
      4.644998642077811e-5 4.703425532403497e-5 4.762587342537817e-5 4.822493316633969e-5
      4.883152815122282e-5 4.944575316172811e-5 5.006770417176305e-5 5.069747836243838e-5
      5.133517413725270e-5 5.198089113746817e-5 5.263473025767982e-5 5.329679366158036e-5
      5.396718479792374e-5 5.464600841668890e-5 5.533337058544731e-5 5.602937870593636e-5
      5.673414153084079e-5 5.744776918078596e-5 5.817037316154404e-5 5.890206638145715e-5
      5.964296316907955e-5 6.039317929104162e-5 6.115283197013883e-5 6.192203990364778e-5
      6.270092328187307e-5 6.348960380692716e-5 6.428820471174662e-5 6.509685077934773e-5
      6.591566836232365e-5 6.674478540258768e-5 6.758433145136420e-5 6.843443768943129e-5
      6.929523694761837e-5 7.016686372756078e-5 7.104945422271623e-5 7.194314633964519e-5
      7.284807971955911e-5 7.376439576013988e-5 7.469223763763299e-5 7.563175032921954e-5
      7.658308063566900e-5 7.754637720427720e-5 7.852179055209295e-5 7.950947308943633e-5
      8.050957914371317e-5 8.152226498352926e-5 8.254768884310728e-5 8.358601094701170e-5
      8.463739353518360e-5 8.570200088829154e-5 8.677999935340033e-5 8.787155736996331e-5
      8.897684549614148e-5 9.009603643545320e-5 9.122930506375983e-5 9.237682845659009e-5
      9.353878591680875e-5 9.471535900263310e-5 9.590673155600154e-5 9.711308973129935e-5
      9.833462202444576e-5 9.957151930234680e-5 1.008239748327187e-4 1.020921843142862e-4
      1.033763459073610e-4 1.046766602648046e-4 1.059933305633809e-4 1.073265625355028e-4
      1.086765645013785e-4 1.100435474015617e-4 1.114277248299118e-4 1.128293130669679e-4
      1.142485311137440e-4 1.156856007259468e-4 1.171407464486273e-4 1.186141956512651e-4
      1.201061785632958e-4 1.216169283100851e-4 1.231466809493542e-4 1.246956755080657e-4
      1.262641540197705e-4 1.278523615624273e-4 1.294605462966961e-4 1.310889595047131e-4
      1.327378556293553e-4 1.344074923139969e-4 1.360981304427666e-4 1.378100341813120e-4
      1.395434710180748e-4 1.412987118060876e-4 1.430760308052945e-4 1.448757057254051e-4
      1.466980177692875e-4 1.485432516769055e-4 1.504116957698117e-4 1.523036419961970e-4
      1.542193859765081e-4 1.561592270496402e-4 1.581234683197069e-4 1.601124167034034e-4
      1.621263829779611e-4 1.641656818297076e-4 1.662306319032379e-4 1.683215558512017e-4
      1.704387803847203e-4 1.725826363244343e-4 1.747534586521960e-4 1.769515865634111e-4
      1.791773635200372e-4 1.814311373042526e-4 1.837132600727964e-4 1.860240884119939e-4
      1.883639833934750e-4 1.907333106305906e-4 1.931324403355423e-4 1.955617473772274e-4
      1.980216113398135e-4 2.005124165820499e-4 2.030345522973226e-4 2.055884125744689e-4
      2.081743964593528e-4 2.107929080172174e-4 2.134443563958216e-4 2.161291558893682e-4
      2.188477260032409e-4 2.216004915195507e-4 2.243878825635100e-4 2.272103346706409e-4
      2.300682888548267e-4 2.329621916772239e-4 2.358924953160359e-4 2.388596576371678e-4
      2.418641422657696e-4 2.449064186586765e-4 2.479869621777650e-4 2.511062541642273e-4
      2.542647820137820e-4 2.574630392528326e-4 2.607015256155786e-4 2.639807471221038e-4
      2.673012161574396e-4 2.706634515516284e-4 2.740679786607917e-4 2.775153294492159e-4
      2.810060425724760e-4 2.845406634615994e-4 2.881197444082908e-4 2.917438446512308e-4
      2.954135304634545e-4 2.991293752408369e-4 3.028919595916840e-4 3.067018714274558e-4
      3.105597060546279e-4 3.144660662677095e-4 3.184215624434319e-4 3.224268126361199e-4
      3.264824426742643e-4 3.305890862583106e-4 3.347473850596733e-4 3.389579888210005e-4
      3.432215554576964e-4 3.475387511607221e-4 3.519102505006899e-4 3.563367365332653e-4
      3.608189009058968e-4 3.653574439658866e-4 3.699530748698215e-4 3.746065116943802e-4
      3.793184815485340e-4 3.840897206871594e-4 3.889209746260786e-4 3.938129982585490e-4
      3.987665559732161e-4 4.037824217735507e-4 4.088613793987895e-4 4.140042224463941e-4
      4.192117544960539e-4 4.244847892352469e-4 4.298241505863788e-4 4.352306728355241e-4
      4.407052007627835e-4 4.462485897742835e-4 4.518617060358359e-4 4.575454266082759e-4
      4.633006395845070e-4 4.691282442282657e-4 4.750291511146338e-4 4.810042822723180e-4
      4.870545713277178e-4 4.931809636508079e-4 4.993844165028531e-4 5.056658991859821e-4
      5.120263931946444e-4 5.184668923689689e-4 5.249884030500553e-4 5.315919442372154e-4
      5.382785477471950e-4 5.450492583753962e-4 5.519051340591297e-4 5.588472460429198e-4
      5.658766790458875e-4 5.729945314312413e-4 5.802019153778978e-4 5.874999570542618e-4
      5.948897967941936e-4 6.023725892751875e-4 6.099495036987918e-4 6.176217239733011e-4
      6.253904488987421e-4 6.332568923541904e-4 6.412222834874406e-4 6.492878669070620e-4
      6.574549028768748e-4 6.657246675128637e-4 6.740984529825793e-4 6.825775677070373e-4
      6.911633365651642e-4 6.998571011008126e-4 7.086602197323778e-4 7.175740679650568e-4
      7.266000386057714e-4 7.357395419807968e-4 7.449940061561310e-4 7.543648771606288e-4
      7.638536192119505e-4 7.734617149453462e-4 7.831906656453222e-4 7.930419914802189e-4
      8.030172317397410e-4 8.131179450754738e-4 8.233457097444262e-4 8.337021238556359e-4
      8.441888056198771e-4 8.548073936025130e-4 8.655595469795184e-4 8.764469457967337e-4
      8.874712912323751e-4 8.986343058628449e-4 9.099377339318927e-4 9.213833416231498e-4
      9.329729173361045e-4 9.447082719655413e-4 9.565912391844956e-4 9.686236757307732e-4
      9.808074616970641e-4 9.931445008247133e-4 1.005636720801185e-3 1.018286073561264e-3
      1.031094535592058e-3 1.044064108241815e-3 1.057196818032651e-3 1.070494716977188e-3
      1.083959882899189e-3 1.097594419758229e-3 1.111400457978429e-3 1.125380154781349e-3
      1.139535694523059e-3 1.153869289035439e-3 1.168383177971798e-3 1.183079629156809e-3
      1.197960938940869e-3 1.213029432558910e-3 1.228287464493715e-3 1.243737418843818e-3
      1.259381709696019e-3 1.275222781502592e-3 1.291263109463235e-3 1.307505199911826e-3
      1.323951590708045e-3 1.340604851633912e-3 1.357467584795329e-3 1.374542425028659e-3
      1.391832040312427e-3 1.409339132184200e-3 1.427066436162699e-3 1.445016722175238e-3
      1.463192794990525e-3 1.481597494656918e-3 1.500233696946185e-3 1.519104313802850e-3
      1.538212293799188e-3 1.557560622595949e-3 1.577152323408872e-3 1.596990457481069e-3
      1.617078124561351e-3 1.637418463388566e-3 1.658014652182040e-3 1.678869909138172e-3
      1.699987492933296e-3 1.721370703232842e-3 1.743022881206924e-3 1.764947410052403e-3
      1.787147715521515e-3 1.809627266457157e-3 1.832389575334900e-3 1.855438198811814e-3
      1.878776738282210e-3 1.902408840440364e-3 1.926338197850317e-3 1.950568549522851e-3
      1.975103681499709e-3 1.999947427445182e-3 2.025103669245118e-3 2.050576337613477e-3
      2.076369412706520e-3 2.102486924744705e-3 2.128932954642424e-3 2.155711634645654e-3
      2.182827148977624e-3 2.210283734492621e-3 2.238085681337989e-3 2.266237333624487e-3
      2.294743090105059e-3 2.323607404862150e-3 2.352834788003668e-3 2.382429806367691e-3
      2.412397084236050e-3 2.442741304056882e-3 2.473467207176266e-3 2.504579594579081e-3
      2.536083327639156e-3 2.567983328878876e-3 2.600284582738337e-3 2.632992136354168e-3
      2.666111100348170e-3 2.699646649625848e-3 2.733604024185002e-3 2.767988529934498e-3
      2.802805539523309e-3 2.838060493180024e-3 2.873758899562879e-3 2.909906336620498e-3
      2.946508452463465e-3 2.983570966246843e-3 3.021099669063823e-3 3.059100424850570e-3
      3.097579171302487e-3 3.136541920801994e-3 3.175994761357969e-3 3.215943857557019e-3
      3.256395451526701e-3 3.297355863910873e-3 3.338831494857303e-3 3.380828825017707e-3
      3.423354416560373e-3 3.466414914195495e-3 3.510017046213435e-3 3.554167625536032e-3
      3.598873550781126e-3 3.644141807340498e-3 3.689979468471330e-3 3.736393696401433e-3
      3.783391743448352e-3 3.830980953152551e-3 3.879168761424874e-3 3.927962697708399e-3
      3.977370386154945e-3 4.027399546816350e-3 4.078057996850749e-3 4.129353651744033e-3
      4.181294526546639e-3 4.233888737125927e-3 4.287144501434303e-3 4.341070140793289e-3
      4.395674081193752e-3 4.450964854612471e-3 4.506951100345281e-3 4.563641566356985e-3
      4.621045110648227e-3 4.679170702639602e-3 4.738027424573112e-3 4.797624472931302e-3
      4.857971159874231e-3 4.919076914694505e-3 4.980951285290644e-3 5.043603939658934e-3
      5.107044667404087e-3 5.171283381268886e-3 5.236330118683060e-3 5.302195043331680e-3
      5.368888446743220e-3 5.436420749897652e-3 5.504802504854740e-3 5.574044396402815e-3
      5.644157243728314e-3 5.715152002106271e-3 5.787039764612125e-3 5.859831763855024e-3
      5.933539373732941e-3 6.008174111209888e-3 6.083747638115437e-3 6.160271762966921e-3
      6.237758442814539e-3 6.316219785109661e-3 6.395668049596660e-3 6.476115650228497e-3
      6.557575157106442e-3 6.640059298444173e-3 6.723580962556587e-3 6.808153199873637e-3
      6.893789224979464e-3 6.980502418677219e-3 7.068306330079831e-3 7.157214678727096e-3
      7.247241356729383e-3 7.338400430938284e-3 7.430706145144612e-3 7.524172922304011e-3
      7.618815366790560e-3 7.714648266678779e-3 7.811686596054236e-3 7.909945517353329e-3
      8.009440383732416e-3 8.110186741466789e-3 8.212200332379826e-3 8.315497096302648e-3
      8.420093173564778e-3 8.526004907516093e-3 8.633248847080488e-3 8.741841749341729e-3
      8.851800582161719e-3 8.963142526831801e-3 9.075884980757355e-3 9.190045560176177e-3
      9.305642102911078e-3 9.422692671157032e-3 9.541215554303474e-3 9.661229271792028e-3
      9.782752576010216e-3 9.905804455221579e-3 1.003040413653258e-2 1.015657108889694e-2
      1.028432502615764e-2 1.041368591012729e-2 1.054467395370722e-2 1.067730962404571e-2
      1.081161364573612e-2 1.094760700405508e-2 1.108531094824149e-2 1.122474699481681e-2
      1.136593693094700e-2 1.150890281784682e-2 1.165366699422698e-2 1.180025207978454e-2
      1.194868097873739e-2 1.209897688340294e-2 1.225116327782208e-2 1.240526394142856e-2
      1.256130295276459e-2 1.271930469324317e-2 1.287929385095770e-2 1.304129542453956e-2
      1.320533472706423e-2 1.337143739000646e-2 1.353962936724528e-2 1.370993693911933e-2
      1.388238671653319e-2 1.405700564511546e-2 1.423382100942896e-2 1.441286043723413e-2
      1.459415190380581e-2 1.477772373630448e-2 1.496360461820248e-2 1.515182359376574e-2
      1.534241007259217e-2 1.553539383420681e-2 1.573080503271505e-2 1.592867420151423e-2
      1.612903225806452e-2 1.633191050871991e-2 1.653734065361982e-2 1.674535479164235e-2
      1.695598542541976e-2 1.716926546641709e-2 1.738522824007471e-2 1.760390749101536e-2
      1.782533738831691e-2 1.804955253085131e-2 1.827658795269075e-2 1.850647912858181e-2
      1.873926197948844e-2 1.897497287820470e-2 1.921364865503805e-2 1.945532660356421e-2
      1.970004448645435e-2 1.994784054137556e-2 2.019875348696556e-2 2.045282252888259e-2
      2.071008736593131e-2 2.097058819626599e-2 2.123436572367133e-2 2.150146116392264e-2
      2.177191625122587e-2 2.204577324473865e-2 2.232307493517341e-2 2.260386465148345e-2
      2.288818626763319e-2 2.317608420945363e-2 2.346760346158390e-2 2.376278957450026e-2
      2.406168867163340e-2 2.436434745657538e-2 2.467081322037709e-2 2.498113384893763e-2
      2.529535783048660e-2 2.561353426316039e-2 2.593571286267393e-2 2.626194397008889e-2
      2.659227855967949e-2 2.692676824689747e-2 2.726546529643696e-2 2.760842263040105e-2
      2.795569383657091e-2 2.830733317677901e-2 2.866339559538773e-2 2.902393672787434e-2
      2.938901290952435e-2 2.975868118423389e-2 3.013299931342294e-2 3.051202578506081e-2
      3.089581982280479e-2 3.128444139525411e-2 3.167795122532014e-2 3.207641079971438e-2
      3.247988237855608e-2 3.288842900510025e-2 3.330211451558851e-2 3.372100354922350e-2
      3.414516155826894e-2 3.457465481827677e-2 3.500955043844264e-2 3.544991637209199e-2
      3.589582142729788e-2 3.634733527763240e-2 3.680452847305329e-2 3.726747245092749e-2
      3.773623954719342e-2 3.821090300766357e-2 3.869153699946932e-2 3.917821662264982e-2
      3.967101792188629e-2 4.017001789838439e-2 4.067529452190564e-2 4.118692674295043e-2
      4.170499450509429e-2 4.222957875747906e-2 4.276076146746143e-2 4.329862563342052e-2
      4.384325529772654e-2 4.439473555987269e-2 4.495315258977181e-2 4.551859364122096e-2
      4.609114706553494e-2 4.667090232535099e-2 4.725795000860814e-2 4.785238184270110e-2
      4.845429070881342e-2 4.906377065643009e-2 4.968091691803275e-2 5.030582592398058e-2
      5.093859531757692e-2 5.157932397032701e-2 5.222811199738650e-2 5.288506077320442e-2
      5.355027294736373e-2 5.422385246061985e-2 5.490590456114221e-2 5.559653582095931e-2
      5.629585415261035e-2 5.700396882600764e-2 5.772099048550936e-2 5.844703116720872e-2
      5.918220431643945e-2 5.992662480550168e-2 6.068040895161152e-2 6.144367453507521e-2
      6.221654081769311e-2 6.299912856139444e-2 6.379156004710608e-2 6.459395909386014e-2
      6.540645107813993e-2 6.622916295347114e-2 6.706222327025823e-2 6.790576219587033e-2
      6.875991153498100e-2 6.962480475016203e-2 7.050057698273802e-2 7.138736507390221e-2
      7.228530758609781e-2 7.319454482466947e-2 7.411521885978533e-2 7.504747354863659e-2
      7.599145455791524e-2 7.694730938657424e-2 7.791518738887556e-2 7.889523979772591e-2
      7.988761974830828e-2 8.089248230200907e-2 8.190998447064647e-2 8.294028524100471e-2
      8.398354559967501e-2 8.503992855821114e-2 8.610959917859967e-2 8.719272459905108e-2
      8.828947406011622e-2 8.940001893112942e-2 9.052453273698637e-2 9.166319118525722e-2
      9.281617219364081e-2 9.398365591776580e-2 9.516582477933902e-2 9.636286349465038e-2
      9.757495910343470e-2 9.880230099809655e-2 1.000450809533044e-1 1.013034931559543e-1
      1.025777342355134e-1 1.038680032947430e-1 1.051745019408083e-1 1.064974343167812e-1
      1.078370071335366e-1 1.091934297020528e-1 1.105669139661159e-1 1.119576745354361e-1
      1.133659287191823e-1 1.147918965599354e-1 1.162358008680720e-1 1.176978672565780e-1
      1.191783241763008e-1 1.206774029516466e-1 1.221953378167234e-1 1.237323659519424e-1
      1.252887275210770e-1 1.268646657087886e-1 1.284604267586255e-1 1.300762600114980e-1
      1.317124179446394e-1 1.333691562110560e-1 1.350467336794720e-1 1.367454124747803e-1
      1.384654580189984e-1 1.402071390727420e-1 1.419707277772196e-1 1.437564996967538e-1
      1.455647338618408e-1 1.473957128127472e-1 1.492497226436595e-1 1.511270530473861e-1
      1.530279973606214e-1 1.549528526097824e-1 1.569019195574175e-1 1.588755027492029e-1
      1.608739105615279e-1 1.628974552496783e-1 1.649464529966292e-1 1.670212239624467e-1
      1.691220923343157e-1 1.712493863771937e-1 1.734034384851025e-1 1.755845852330669e-1
      1.777931674297033e-1 1.800295301704736e-1 1.822940228916063e-1 1.845869994246955e-1
      1.869088180519904e-1 1.892598415623744e-1 1.916404373080548e-1 1.940509772619603e-1
      1.964918380758625e-1 1.989634011392301e-1 2.014660526388195e-1 2.040001836190197e-1
      2.065661900429523e-1 2.091644728543409e-1 2.117954380401618e-1 2.144594966940772e-1
      2.171570650806727e-1 2.198885647004962e-1 2.226544223559209e-1 2.254550702178330e-1
      2.282909458931582e-1 2.311624924932411e-1 2.340701587030794e-1 2.370143988514346e-1
      2.399956729818202e-1 2.430144469243837e-1 2.460711923686965e-1 2.491663869374520e-1
      2.523005142610995e-1 2.554740640534102e-1 2.586875321879948e-1 2.619414207757880e-1
      2.652362382435010e-1 2.685724994130668e-1 2.719507255820814e-1 2.753714446052558e-1
      2.788351909768978e-1 2.823425059144240e-1 2.858939374429297e-1 2.894900404808171e-1
      2.931313769265011e-1 2.968185157462107e-1 3.005520330628873e-1 3.043325122462078e-1
      3.081605440037366e-1 3.120367264732229e-1 3.159616653160648e-1 3.199359738119409e-1
      3.239602729546398e-1 3.280351915490908e-1 3.321613663096135e-1 3.363394419594102e-1
      3.405700713313004e-1 3.448539154697313e-1 3.491916437340658e-1 3.535839339031690e-1
      3.580314722813172e-1 3.625349538054295e-1 3.670950821536569e-1 3.717125698553323e-1
      3.763881384023020e-1 3.811225183616653e-1 3.859164494899218e-1 3.907706808485642e-1
      3.956859709211189e-1 4.006630877316588e-1 4.057028089648129e-1 4.108059220872757e-1
      4.159732244708558e-1 4.212055235170644e-1 4.265036367832710e-1 4.318683921104541e-1
      4.373006277525469e-1 4.428011925074210e-1 4.483709458495111e-1 4.540107580641073e-1
      4.597215103833438e-1 4.655040951238877e-1 4.713594158263700e-1 4.772883873965642e-1
      4.832919362483391e-1 4.893710004484188e-1 4.955265298629506e-1 5.017594863059300e-1
      5.080708436894833e-1 5.144615881760403e-1 5.209327183324310e-1 5.274852452859060e-1
      5.341201928821341e-1 5.408385978451768e-1 5.476415099394768e-1 5.545299921338909e-1
      5.615051207677750e-1 5.685679857191701e-1 5.757196905750953e-1 5.829613528039827e-1
      5.902941039302910e-1 5.977190897112999e-1 6.052374703161450e-1 6.128504205070936e-1
      6.205591298230990e-1 6.283648027656778e-1 6.362686589871056e-1 6.442719334809989e-1
      6.523758767752811e-1 6.605817551275774e-1 6.688908507230775e-1 6.773044618748711e-1
      6.858239032268191e-1 6.944505059589670e-1 7.031856179955405e-1 7.120306042155693e-1
      7.209868466661429e-1 7.300557447783673e-1 7.392387155860244e-1 7.485371939469835e-1
      7.579526327674088e-1 7.674865032287695e-1 7.771402950177229e-1 7.869155165588785e-1
      7.968136952504869e-1 8.068363777031099e-1 8.169851299812688e-1 8.272615378481564e-1
      8.376672070134111e-1 8.482037633840072e-1 8.588728533183176e-1 8.696761438833477e-1
      8.806153231152296e-1 8.916921002829755e-1 9.029082061555510e-1 9.142653932723205e-1
      9.257654362168747e-1 9.374101318943223e-1 9.492012998120558e-1 9.611407823640482e-1
      9.732304451187430e-1 9.854721771105382e-1 9.978678911349659e-1 1.010419524047563e0
      1.023129037066506e0 1.035998416079064e0 1.049029671951887e0 1.062224840845221e0
      1.075585984531052e0 1.089115190715260e0 1.102814573363842e0 1.116686273033204e0
      1.130732457204643e0 1.144955320623015e0 1.159357085639662e0 1.173940002559673e0
      1.188706349993481e0 1.203658435212918e0 1.218798594511721e0 1.234129193570579e0
      1.249652627826790e0 1.265371322848535e0 1.281287734713892e0 1.297404350394602e0
      1.313723688144647e0 1.330248297893760e0 1.346980761645827e0 1.363923693882355e0
      1.381079741970979e0 1.398451586579111e0 1.416041942092822e0 1.433853557040941e0
      1.451889214524546e0 1.470151732651814e0 1.488643964978353e0 1.507368800953093e0
      1.526329166369744e0 1.545528023823982e0 1.564968373176346e0 1.584653252020969e0
      1.604585736160225e0 1.624768940085309e0 1.645206017462898e0 1.665900161627917e0
      1.686854606082488e0 1.708072625001194e0 1.729557533742654e0 1.751312689367574e0
      1.773341491163284e0 1.795647381174876e0 1.818233844743054e0 1.841104411048694e0
      1.864262653664317e0 1.887712191112450e0 1.911456687431022e0 1.935499852745896e0
      1.959845443850564e0 1.984497264793170e0 2.009459167470895e0 2.034735052231809e0
      2.060328868484339e0 2.086244615314338e0 2.112486342109977e0 2.139058149194462e0
      2.165964188466702e0 2.193208664050082e0 2.220795832949334e0 2.248730005715728e0
      2.277015547120596e0 2.305656876837322e0 2.334658470131953e0 2.364024858562439e0
      2.393760630686719e0 2.423870432779693e0 2.454358969559187e0 2.485231004921112e0
      2.516491362683792e0 2.548144927341733e0 2.580196644828817e0 2.612651523291103e0
      2.645514633869387e0 2.678791111491550e0 2.712486155674926e0 2.746605031338728e0
      2.781153069626683e0 2.816135668740072e0 2.851558294781169e0 2.887426482607366e0
      2.923745836695990e0 2.960522032020000e0 2.997760814934747e0 3.035468004075814e0
      3.073649491268226e0 3.112311242447042e0 3.151459298589531e0 3.191099776659125e0
      3.231238870561159e0 3.271882852110724e0 3.313038072012635e0 3.354710960853720e0
      3.396908030107657e0 3.439635873152355e0 3.482901166300227e0 3.526710669841358e0
      3.571071229099793e0 3.615989775503182e0 3.661473327665776e0 3.707528992485142e0
      3.754163966252618e0 3.801385535777719e0 3.849201079526772e0 3.897618068775754e0
      3.946644068777749e0 3.996286739945006e0 4.046553839045880e0 4.097453220416892e0
      4.148992837189919e0 4.201180742534948e0 4.254025090918375e0 4.307534139377132e0
      4.361716248808921e0 4.416579885278558e0 4.472133621340871e0 4.528386137380154e0
      4.585346222966467e0 4.643022778229086e0 4.701424815247099e0 4.760561459457617e0
      4.820441951081621e0 4.881075646567740e0 4.942472020054267e0 5.004640664849458e0
      5.067591294930552e0 5.131333746461582e0 5.195877979330267e0 5.261234078704327e0
      5.327412256607240e0 5.394422853513952e0 5.462276339966573e0 5.530983318210393e0
      5.600554523850565e0 5.671000827529497e0 5.742333236625471e0 5.814562896972544e0
      5.887701094602080e0 5.961759257506278e0 6.036748957423745e0 6.112681911647670e0
      6.189569984856650e0 6.267425190968529e0 6.346259695017684e0 6.426085815055740e0
      6.506916024076372e0 6.588762951964203e0 6.671639387468207e0 6.755558280200070e0
      6.840532742657493e0 6.926576052273128e0 7.013701653489171e0 7.101923159858047e0
      7.191254356169638e0 7.281709200605088e0 7.373301826917886e0 7.466046546642251e0
      7.559957851329306e0 7.655050414811499e0 7.751339095495313e0 7.848838938683020e0
      7.947565178923496e0 8.047533242392612e0 8.148758749303701e0 8.251257516348133e0
      8.355045559166806e0 8.460139094852588e0 8.566554544484212e0 8.674308535692216e0
      8.783417905256927e0 8.893899701739334e0 9.005771188144935e0 9.119049844621049e0
      9.233753371188255e0 9.349899690505911e0 9.467506950672723e0 9.586593528062391e0
      9.707178030194875e0 9.829279298644002e0 9.952916411981350e0 1.007810868875744e1
      1.020487569052023e1 1.033323722487163e1 1.046321334856257e1 1.059482437062677e1
      1.072809085555422e1 1.086303362650435e1 1.099967376855961e1 1.113803263202023e1
      1.127813183574010e1 1.141999327050483e1 1.156363910245226e1 1.170909177653583e1
      1.185637402003184e1 1.200550884609044e1 1.215651955733164e1 1.230942974948632e1
      1.246426331508307e1 1.262104444718156e1 1.277979764315261e1 1.294054770850611e1
      1.310331976076684e1 1.326813923339907e1 1.343503187978079e1 1.360402377722748e1
      1.377514133106696e1 1.394841127876519e1 1.412386069410397e1 1.430151699141144e1
      1.448140792984546e1 1.466356161773117e1 1.484800651695292e1 1.503477144740143e1
      1.522388559147709e1 1.541537849864964e1 1.560928009007543e1 1.580562066327265e1
      1.600443089685526e1 1.620574185532680e1 1.640958499393405e1 1.661599216358216e1
      1.682499561581135e1 1.703662800783621e1 1.725092240764861e1 1.746791229918446e1
      1.768763158755579e1 1.791011460434847e1 1.813539611298646e1 1.836351131416389e1
      1.859449585134497e1 1.882838581633363e1 1.906521775491277e1 1.930502867255457e1
      1.954785604020288e1 1.979373780012785e1 2.004271237185477e1 2.029481865816704e1
      2.055009605118474e1 2.080858443851997e1 2.107032420950908e1 2.133535626152383e1
      2.160372200636160e1 2.187546337671594e1 2.215062283272891e1 2.242924336862524e1
      2.271136851943058e1 2.299704236777374e1 2.328630955077469e1 2.357921526701934e1
      2.387580528362172e1 2.417612594337536e1 2.448022417199441e1 2.478814748544568e1
      2.509994399737348e1 2.541566242661707e1 2.573535210482337e1 2.605906298415508e1
      2.638684564509560e1 2.671875130435266e1 2.705483182286071e1 2.739513971388455e1
      2.773972815122459e1 2.808865097752512e1 2.844196271268774e1 2.879971856238979e1
      2.916197442671070e1 2.952878690886633e1 2.990021332405320e1 3.027631170840447e1
      3.065714082805775e1 3.104276018833786e1 3.143323004305444e1 3.182861140391659e1
      3.222896605006646e1 3.263435653773195e1 3.304484621000158e1 3.346049920672183e1
      3.388138047451899e1 3.430755577694756e1 3.473909170476549e1 3.517605568633950e1
      3.561851599818083e1 3.606654177561323e1 3.652020302357608e1 3.697957062756223e1
      3.744471636469446e1 3.791571291494061e1 3.839263387246977e1 3.887555375715199e1
      3.936454802620163e1 3.985969308596815e1 4.036106630387461e1 4.086874602050620e1
      4.138281156185167e1 4.190334325169760e1 4.243042242417960e1 4.296413143649084e1
      4.350455368175016e1 4.405177360203303e1 4.460587670156516e1 4.516694956008329e1
      4.573507984636311e1 4.631035633191760e1 4.689286890486819e1 4.748270858398936e1
      4.807996753293111e1 4.868473907461940e1 4.929711770583790e1 4.991719911199379e1
      5.054508018206816e1 5.118085902375575e1 5.182463497879415e1 5.247650863848595e1
      5.313658185941687e1 5.380495777937046e1 5.448174083344412e1 5.516703677036705e1
      5.586095266902347e1 5.656359695518451e1 5.727507941844923e1 5.799551122940014e1
      5.872500495697353e1 5.946367458604829e1 6.021163553525702e1 6.096900467501953e1
      6.173590034580495e1 6.251244237662215e1 6.329875210374315e1 6.409495238966277e1
      6.490116764229537e1 6.571752383441453e1 6.654414852333627e1 6.738117087084977e1