<UPF version="2.0.1">
  <PP_INFO>
Generated using "atomic" code by A. Dal Corso  v.6.2.2
Author: ADC
Generation date:  4May2018
Pseudopotential type: USPP
Element: Tb
Functional: PBE
    Suggested minimum cutoff for wavefunctions:  35. Ry
    Suggested minimum cutoff for charge density: 229. Ry
    The Pseudo was generated with a Scalar-Relativistic Calculation
    Local Potential by smoothing AE potential with Bessel fncs, cutoff radius:   2.0000
    Pseudopotential contains additional information for GIPAW reconstruction.
    Valence configuration:
    nl pn  l   occ       Rcut    Rcut US       E pseu
    5S  1  0  2.00      1.300      1.700    -3.818463
    6S  2  0  1.50      1.300      1.700    -0.337051
    5P  2  1  6.00      1.300      1.800    -2.099286
    6P  3  1  0.50      1.300      1.800    -0.120701
    5D  3  2  1.00      1.300      2.000    -0.217171
    Generation configuration:
    5S  1  0  2.00      1.300      1.700    -3.818507
    6S  2  0  1.50      1.300      1.700    -0.337059
    5P  2  1  6.00      1.300      1.800    -2.099319
    6P  3  1  0.50      1.300      1.800    -0.120706
    5D  3  2  1.00      1.300      2.000    -0.217187
    5D  3  2  0.00      1.300      2.000     2.000000
    Pseudization used: troullier-martins

    <PP_INPUTFILE>
 &amp;input
   title='Tb',
   zed=65.0,
   rel=1,
   config='[Xe] 4f8.0 5d1.0 6s1.5 6p0.5',
   iswitch=3,
   dft='PBE'
 /
 &amp;inputp
   lpaw=.false.,
   use_xsd=.FALSE.,
   pseudotype=3,
   file_pseudopw='Tb.pbe-spdn-rrkjus_psl.1.0.0.UPF',
   author='ADC',
   lloc=-1,
   rcloc=2.0,
   which_augfun='PSQ',
   rmatch_augfun_nc=.true.,
   nlcc=.true.,
   new_core_ps=.true.,
   rcore=1.1,
   tm=.true.
 /
6
5S  1  0  2.00  0.00  1.30  1.70  0.0
6S  2  0  1.50  0.00  1.30  1.70  0.0
5P  2  1  6.00  0.00  1.30  1.80  0.0
6P  3  1  0.50  0.00  1.30  1.80  0.0
5D  3  2  1.00  0.00  1.30  2.00  0.0
5D  3  2  0.00  2.00  1.30  2.00  0.0
</PP_INPUTFILE>
  </PP_INFO>
  <!--
 END OF HUMAN READABLE SECTION 
-->
  <PP_HEADER generated="Generated using &quot;atomic&quot; code by A. Dal Corso  v.6.2.2" author="ADC" date=" 4May2018" comment="" element="Tb" pseudo_type="USPP" relativistic="scalar" is_ultrasoft="true" is_paw="false" is_coulomb="false" has_so="false" has_wfc="false" has_gipaw="true" paw_as_gipaw="false" core_correction="true" functional="PBE" z_valence="1.100000000000e1" total_psenergy="-1.240234959242e2" wfc_cutoff="3.498668288140e1" rho_cutoff="2.286640542820e2" l_max="2" l_max_rho="4" l_local="-1" mesh_size="1263" number_of_wfc="5" number_of_proj="6"/>
  <PP_MESH dx="1.250000000000e-2" mesh="1263" xmin="-7.000000000000e0" rmax="1.000000000000e2" zmesh="6.500000000000e1">
    <PP_R>
      1.402895331622332e-5 1.420541582567727e-5 1.438409796025511e-5 1.456502763940390e-5
      1.474823313375415e-5 1.493374306953706e-5 1.512158643305752e-5 1.531179257522325e-5
      1.550439121613093e-5 1.569941244971007e-5 1.589688674842519e-5 1.609684496803721e-5
      1.629931835242477e-5 1.650433853846611e-5 1.671193756098243e-5 1.692214785774336e-5
      1.713500227453543e-5 1.735053407029434e-5 1.756877692230165e-5 1.778976493144704e-5
      1.801353262755653e-5 1.824011497478789e-5 1.846954737709386e-5 1.870186568375407e-5
      1.893710619497663e-5 1.917530566756999e-5 1.941650132068638e-5 1.966073084163730e-5
      1.990803239178228e-5 2.015844461249169e-5 2.041200663118449e-5 2.066875806744195e-5
      2.092873903919837e-5 2.119199016900950e-5 2.145855259039998e-5 2.172846795429048e-5
      2.200177843550576e-5 2.227852673936455e-5 2.255875610835236e-5 2.284251032887826e-5
      2.312983373811650e-5 2.342077123093433e-5 2.371536826690693e-5 2.401367087742050e-5
      2.431572567286488e-5 2.462157984991637e-5 2.493128119891241e-5 2.524487811131886e-5
      2.556241958729129e-5 2.588395524333140e-5 2.620953532003960e-5 2.653921068996527e-5
      2.687303286555569e-5 2.721105400720493e-5 2.755332693140415e-5 2.789990511899408e-5
      2.825084272352165e-5 2.860619457970155e-5 2.896601621198427e-5 2.933036384323195e-5
      2.969929440350322e-5 3.007286553894872e-5 3.045113562081841e-5 3.083416375458214e-5
      3.122200978916514e-5 3.161473432629936e-5 3.201239872999277e-5 3.241506513611744e-5
      3.282279646211859e-5 3.323565641684545e-5 3.365370951050592e-5 3.407702106474642e-5
      3.450565722285851e-5 3.493968496011395e-5 3.537917209422978e-5 3.582418729596482e-5
      3.627480009984974e-5 3.673108091505189e-5 3.719310103637698e-5 3.766093265540897e-5
      3.813464887179013e-5 3.861432370464305e-5 3.910003210413628e-5 3.959184996319538e-5
      4.008985412936151e-5 4.059412241679880e-5 4.110473361845307e-5 4.162176751836348e-5
      4.214530490412875e-5 4.267542757953059e-5 4.321221837731558e-5 4.375576117213797e-5
      4.430614089366528e-5 4.486344353984873e-5 4.542775619036072e-5 4.599916702020093e-5
      4.657776531347409e-5 4.716364147734065e-5 4.775688705614321e-5 4.835759474571048e-5
      4.896585840784104e-5 4.958177308496964e-5 5.020543501501766e-5 5.083694164643049e-5
      5.147639165340419e-5 5.212388495130326e-5 5.277952271227283e-5 5.344340738104698e-5
      5.411564269095582e-5 5.479633368013430e-5 5.548558670793431e-5 5.618350947154374e-5
      5.689021102281435e-5 5.760580178530123e-5 5.833039357151705e-5 5.906409960040251e-5
      5.980703451501739e-5 6.055931440045359e-5 6.132105680197371e-5 6.209238074337784e-5
      6.287340674560102e-5 6.366425684554518e-5 6.446505461514739e-5 6.527592518068831e-5
      6.609699524234369e-5 6.692839309398105e-5 6.777024864320625e-5 6.862269343166155e-5
      6.948586065557948e-5 7.035988518659497e-5 7.124490359281915e-5 7.214105416017863e-5
      7.304847691402273e-5 7.396731364100284e-5 7.489770791122713e-5 7.583980510069310e-5
      7.679375241400334e-5 7.775969890736638e-5 7.873779551188695e-5 7.972819505714962e-5
      8.073105229509823e-5 8.174652392421656e-5 8.277476861401263e-5 8.381594702981111e-5
      8.487022185785802e-5 8.593775783073999e-5 8.701872175312475e-5 8.811328252782440e-5
      8.922161118218680e-5 9.034388089481926e-5 9.148026702264762e-5 9.263094712831627e-5
      9.379610100793288e-5 9.497591071916156e-5 9.617056060967016e-5 9.738023734593455e-5
      9.860512994240590e-5 9.984542979104443e-5 1.011013306912248e-4 1.023730288800180e-4
      1.036607230628533e-4 1.049646144445666e-4 1.062849067608389e-4 1.076218063100309e-4
      1.089755219854173e-4 1.103462653078261e-4 1.117342504586907e-4 1.131396943135144e-4
      1.145628164757591e-4 1.160038393111581e-4 1.174629879824609e-4 1.189404904846165e-4
      1.204365776803965e-4 1.219514833364691e-4 1.234854441599255e-4 1.250386998352648e-4
      1.266114930618466e-4 1.282040695918124e-4 1.298166782684851e-4 1.314495710652515e-4
      1.331030031249328e-4 1.347772327996527e-4 1.364725216912040e-4 1.381891346919248e-4
      1.399273400260895e-4 1.416874092918175e-4 1.434696175035127e-4 1.452742431348340e-4
      1.471015681622078e-4 1.489518781088876e-4 1.508254620895666e-4 1.527226128555541e-4
      1.546436268405167e-4 1.565888042067980e-4 1.585584488923192e-4 1.605528686580693e-4
      1.625723751361947e-4 1.646172838786912e-4 1.666879144067100e-4 1.687845902604844e-4
      1.709076390498816e-4 1.730573925055948e-4 1.752341865309750e-4 1.774383612545172e-4
      1.796702610830070e-4 1.819302347553326e-4 1.842186353969788e-4 1.865358205752015e-4
      1.888821523548991e-4 1.912579973551860e-4 1.936637268066769e-4 1.960997166094934e-4
      1.985663473919981e-4 2.010640045702689e-4 2.035930784083221e-4 2.061539640790897e-4
      2.087470617261682e-4 2.113727765263407e-4 2.140315187528864e-4 2.167237038396882e-4
      2.194497524461424e-4 2.222100905228905e-4 2.250051493783726e-4 2.278353657462215e-4
      2.307011818535033e-4 2.336030454898145e-4 2.365414100772528e-4 2.395167347412630e-4
      2.425294843823767e-4 2.455801297488557e-4 2.486691475102442e-4 2.517970203318527e-4
      2.549642369501731e-4 2.581712922492454e-4 2.614186873379859e-4 2.647069296284829e-4
      2.680365329152848e-4 2.714080174556794e-4 2.748219100509852e-4 2.782787441288664e-4
      2.817790598266796e-4 2.853234040758752e-4 2.889123306874524e-4 2.925464004384962e-4
      2.962261811597989e-4 2.999522478245846e-4 3.037251826383505e-4 3.075455751298374e-4
      3.114140222431445e-4 3.153311284310040e-4 3.192975057492268e-4 3.233137739523389e-4
      3.273805605904181e-4 3.314985011071503e-4 3.356682389391196e-4 3.398904256163453e-4
      3.441657208640861e-4 3.484947927059226e-4 3.528783175681374e-4 3.573169803854088e-4
      3.618114747078325e-4 3.663625028092905e-4 3.709707757971827e-4 3.756370137235390e-4
      3.803619456975293e-4 3.851463099993868e-4 3.899908541957684e-4 3.948963352565605e-4
      3.998635196731591e-4 4.048931835782355e-4 4.099861128670074e-4 4.151431033200383e-4
      4.203649607275780e-4 4.256525010154705e-4 4.310065503726434e-4 4.364279453802016e-4
      4.419175331421451e-4 4.474761714177305e-4 4.531047287554968e-4 4.588040846289802e-4
      4.645751295741309e-4 4.704187653284630e-4 4.763359049719522e-4 4.823274730697060e-4
      4.883944058164300e-4 4.945376511827088e-4 5.007581690631298e-4 5.070569314262672e-4
      5.134349224665552e-4 5.198931387580701e-4 5.264325894102466e-4 5.330542962255542e-4
      5.397592938591544e-4 5.465486299805686e-4 5.534233654373795e-4 5.603845744209883e-4
      5.674333446344617e-4 5.745707774624865e-4 5.817979881434630e-4 5.891161059437642e-4
      5.965262743341847e-4 6.040296511686126e-4 6.116274088649432e-4 6.193207345882747e-4
      6.271108304364034e-4 6.349989136276546e-4 6.429862166910755e-4 6.510739876590204e-4
      6.592634902621565e-4 6.675560041269289e-4 6.759528249754988e-4 6.844552648282082e-4
      6.930646522085819e-4 7.017823323509140e-4 7.106096674104634e-4 7.195480366762920e-4
      7.285988367867836e-4 7.377634819478686e-4 7.470434041539995e-4 7.564400534119013e-4
      7.659548979671376e-4 7.755894245335291e-4 7.853451385254527e-4 7.952235642930681e-4
      8.052262453604984e-4 8.153547446670123e-4 8.256106448112330e-4 8.359955482984230e-4
      8.465110777908810e-4 8.571588763614830e-4 8.679406077504206e-4 8.788579566251585e-4
      8.899126288436690e-4 9.011063517209777e-4 9.124408742990575e-4 9.239179676201223e-4
      9.355394250033536e-4 9.473070623251111e-4 9.592227183026687e-4 9.712882547815134e-4
      9.835055570262705e-4 9.958765340152700e-4 1.008403118738836e-3 1.021087268501317e-3
      1.033930965226920e-3 1.046936215769388e-3 1.060105052225578e-3 1.073439532252980e-3
      1.086941739391225e-3 1.100613783387649e-3 1.114457800526945e-3 1.128475953964956e-3
      1.142670434066675e-3 1.157043458748499e-3 1.171597273824774e-3 1.186334153358719e-3
      1.201256400017741e-3 1.216366345433241e-3 1.231666350564932e-3 1.247158806069742e-3
      1.262846132675366e-3 1.278730781558501e-3 1.294815234727852e-3 1.311102005411952e-3
      1.327593638451854e-3 1.344292710698775e-3 1.361201831416728e-3 1.378323642690227e-3
      1.395660819837116e-3 1.413216071826598e-3 1.430992141702515e-3 1.448991807011949e-3
      1.467217880239225e-3 1.485673209245367e-3 1.504360677713078e-3 1.523283205597328e-3
      1.542443749581596e-3 1.561845303539863e-3 1.581490899004407e-3 1.601383605639487e-3
      1.621526531720990e-3 1.641922824622095e-3 1.662575671305066e-3 1.683488298819215e-3
      1.704663974805138e-3 1.726106008005288e-3 1.747817748780981e-3 1.769802589635883e-3
      1.792063965746108e-3 1.814605355496963e-3 1.837430281026456e-3 1.860542308775642e-3
      1.883945050045876e-3 1.907642161563097e-3 1.931637346049190e-3 1.955934352800547e-3
      1.980536978273911e-3 2.005449066679565e-3 2.030674510582004e-3 2.056217251508162e-3
      2.082081280563272e-3 2.108270639054500e-3 2.134789419122389e-3 2.161641764380280e-3
      2.188831870561749e-3 2.216363986176204e-3 2.244242413172729e-3 2.272471507612259e-3
      2.301055680348232e-3 2.329999397715795e-3 2.359307182229669e-3 2.388983613290816e-3
      2.419033327901964e-3 2.449461021392159e-3 2.480271448150413e-3 2.511469422368590e-3
      2.543059818793640e-3 2.575047573489270e-3 2.607437684607233e-3 2.640235213168290e-3
      2.673445283853002e-3 2.707073085802485e-3 2.741123873429208e-3 2.775602967238013e-3
      2.810515754657458e-3 2.845867690881605e-3 2.881664299722416e-3 2.917911174472851e-3
      2.954613978780834e-3 2.991778447534210e-3 3.029410387756832e-3 3.067515679515926e-3
      3.106100276840853e-3 3.145170208653448e-3 3.184731579710043e-3 3.224790571555350e-3
      3.265353443488355e-3 3.306426533540318e-3 3.348016259465123e-3 3.390129119742062e-3
      3.432771694591228e-3 3.475950647001707e-3 3.519672723772654e-3 3.563944756567522e-3
      3.608773662981505e-3 3.654166447622433e-3 3.700130203205265e-3 3.746672111660320e-3
      3.793799445255486e-3 3.841519567732519e-3 3.889839935457639e-3 3.938768098586617e-3
      3.988311702244485e-3 4.038478487720115e-3 4.089276293675797e-3 4.140713057372060e-3
      4.192796815907887e-3 4.245535707476511e-3 4.298937972637037e-3 4.353011955602046e-3
      4.407766105541386e-3 4.463208977902390e-3 4.519349235746660e-3 4.576195651103704e-3
      4.633757106341574e-3 4.692042595554758e-3 4.751061225969537e-3 4.810822219366983e-3
      4.871334913523899e-3 4.932608763671860e-3 4.994653343974612e-3 5.057478349024064e-3
      5.121093595355072e-3 5.185509022979298e-3 5.250734696938367e-3 5.316780808876532e-3
      5.383657678633160e-3 5.451375755855214e-3 5.519945621630027e-3 5.589377990138638e-3
      5.659683710329882e-3 5.730873767615585e-3 5.802959285587031e-3 5.875951527753064e-3
      5.949861899300023e-3 6.024701948873830e-3 6.100483370384508e-3 6.177218004833334e-3
      6.254917842163065e-3 6.333595023131366e-3 6.413261841207820e-3 6.493930744494856e-3
      6.575614337672720e-3 6.658325383969038e-3 6.742076807153069e-3 6.826881693555076e-3
      6.912753294111102e-3 6.999705026433441e-3 7.087750476907169e-3 7.176903402813056e-3
      7.267177734477150e-3 7.358587577447450e-3 7.451147214697887e-3 7.544871108860097e-3
      7.639773904483228e-3 7.735870430322168e-3 7.833175701654602e-3 7.931704922627141e-3
      8.031473488631020e-3 8.132496988707658e-3 8.234791207984467e-3 8.338372130141341e-3
      8.443255939908100e-3 8.549459025593411e-3 8.656997981645478e-3 8.765889611244971e-3
      8.876150928930565e-3 8.987799163257479e-3 9.100851759489466e-3 9.215326382324704e-3
      9.331240918655899e-3 9.448613480365198e-3 9.567462407154158e-3 9.687806269409391e-3
      9.809663871104213e-3 9.933054252736801e-3 1.005799669430535e-2 1.018451071832053e-2
      1.031261609285600e-2 1.044233283463715e-2 1.057368121216880e-2 1.070668174890219e-2
      1.084135522644175e-2 1.097772268779235e-2 1.111580544064727e-2 1.125562506071757e-2
      1.139720339510335e-2 1.154056256570742e-2 1.168572497269183e-2 1.183271329797801e-2
      1.198155050879084e-2 1.213225986124733e-2 1.228486490399042e-2 1.243938948186851e-2
      1.259585773966127e-2 1.275429412585231e-2 1.291472339644935e-2 1.307717061885228e-2
      1.324166117577013e-2 1.340822076918705e-2 1.357687542437839e-2 1.374765149397717e-2
      1.392057566209169e-2 1.409567494847505e-2 1.427297671274698e-2 1.445250865866886e-2
      1.463429883847253e-2 1.481837565724342e-2 1.500476787735897e-2 1.519350462298280e-2
      1.538461538461539e-2 1.557813002370207e-2 1.577407877729891e-2 1.597249226279732e-2
      1.617340148270807e-2 1.637683782950553e-2 1.658283309053279e-2 1.679141945296849e-2
      1.700262950885613e-2 1.721649626019664e-2 1.743305312410502e-2 1.765233393803188e-2
      1.787437296505051e-2 1.809920489921063e-2 1.832686487095937e-2 1.855738845263047e-2
      1.879081166400262e-2 1.902717097792746e-2 1.926650332602869e-2 1.950884610447262e-2
      1.975423717981141e-2 2.000271489489987e-2 2.025431807488649e-2 2.050908603328006e-2
      2.076705857809237e-2 2.102827601805840e-2 2.129277916893464e-2 2.156060935987652e-2
      2.183180843989628e-2 2.210641878440192e-2 2.238448330181849e-2 2.266604544029255e-2
      2.295114919448109e-2 2.323983911242574e-2 2.353216030251353e-2 2.382815844052512e-2
      2.412787977677183e-2 2.443137114332222e-2 2.473867996131975e-2 2.504985424839248e-2
      2.536494262615582e-2 2.568399432780989e-2 2.600705920583218e-2 2.633418773976715e-2
      2.666543104411379e-2 2.700084087631228e-2 2.734046964483137e-2 2.768437041735706e-2
      2.803259692908477e-2 2.838520359111540e-2 2.874224549895727e-2 2.910377844113492e-2
      2.946985890790610e-2 2.984054410008854e-2 3.021589193799767e-2 3.059596107049680e-2
      3.098081088416119e-2 3.137050151255716e-2 3.176509384563827e-2 3.216464953925934e-2
      3.256923102481038e-2 3.297890151897169e-2 3.339372503359144e-2 3.381376638568774e-2
      3.423909120757644e-2 3.466976595712628e-2 3.510585792814314e-2 3.554743526088469e-2
      3.599456695270757e-2 3.644732286884833e-2 3.690577375333997e-2 3.736999124006598e-2
      3.784004786395308e-2 3.831601707230512e-2 3.879797323627923e-2 3.928599166250657e-2
      3.978014860485918e-2 4.028052127636464e-2 4.078718786127090e-2 4.130022752726265e-2
      4.181972043783146e-2 4.234574776480165e-2 4.287839170101311e-2 4.341773547316460e-2
      4.396386335481794e-2 4.451686067956556e-2 4.507681385436469e-2 4.564381037303797e-2
      4.621793882994511e-2 4.679928893382563e-2 4.738795152181586e-2 4.798401857364301e-2
      4.858758322599645e-2 4.919873978708114e-2 4.981758375135326e-2 5.044421181444113e-2
      5.107872188825464e-2 5.172121311628355e-2 5.237178588908950e-2 5.303054185999195e-2
      5.369758396095142e-2 5.437301641865343e-2 5.505694477079355e-2 5.574947588256832e-2
      5.645071796337302e-2 5.716078058370931e-2 5.787977469230637e-2 5.860781263345636e-2
      5.934500816456882e-2 6.009147647394546e-2 6.084733419877811e-2 6.161269944337429e-2
      6.238769179761039e-2 6.317243235561864e-2 6.396704373470784e-2 6.477165009452246e-2
      6.558637715644342e-2 6.641135222323147e-2 6.724670419891932e-2 6.809256360895288e-2
      6.894906262058560e-2 6.981633506353089e-2 7.069451645087216e-2 7.158374400023798e-2
      7.248415665524223e-2 7.339589510719389e-2 7.431910181708130e-2 7.525392103783086e-2
      7.620049883684788e-2 7.715898311883942e-2 7.812952364892434e-2 7.911227207603526e-2
      8.010738195661309e-2 8.111500877860138e-2 8.213530998574123e-2 8.316844500217179e-2
      8.421457525734162e-2 8.527386421123115e-2 8.634647737989470e-2 8.743258236132228e-2
      8.853234886162664e-2 8.964594872156123e-2 9.077355594336954e-2 9.191534671797418e-2
      9.307149945250693e-2 9.424219479818440e-2 9.542761567853649e-2 9.662794731798718e-2
      9.784337727079738e-2 9.907409545037021e-2 1.003202941589248e-1 1.015821681175451e-1
      1.028599144966042e-1 1.041537329465734e-1 1.054638256292182e-1 1.067903972491852e-1
      1.081336550859892e-1 1.094938090264000e-1 1.108710715972379e-1 1.122656579985821e-1
      1.136777861373946e-1 1.151076766615706e-1 1.165555529944131e-1 1.180216413695450e-1
      1.195061708662581e-1 1.210093734453060e-1 1.225314839851505e-1 1.240727403186596e-1
      1.256333832702715e-1 1.272136566936227e-1 1.288138075096502e-1 1.304340857451751e-1
      1.320747445719677e-1 1.337360403463077e-1 1.354182326490402e-1 1.371215843261344e-1
      1.388463615297558e-1 1.405928337598512e-1 1.423612739062598e-1 1.441519582913529e-1
      1.459651667132081e-1 1.478011824893309e-1 1.496602925009214e-1 1.515427872377012e-1
      1.534489608433035e-1 1.553791111612316e-1 1.573335397814002e-1 1.593125520872568e-1
      1.613164573035011e-1 1.633455685444002e-1 1.654002028627132e-1 1.674806812992331e-1
      1.695873289329478e-1 1.717204749318364e-1 1.738804526043014e-1 1.760675994512480e-1
      1.782822572188216e-1 1.805247719518033e-1 1.827954940476830e-1 1.850947783114083e-1
      1.874229840108227e-1 1.897804749328041e-1 1.921676194401048e-1 1.945847905289111e-1
      1.970323658871237e-1 1.995107279533713e-1 2.020202639767697e-1 2.045613660774275e-1
      2.071344313077186e-1 2.097398617143194e-1 2.123780644010322e-1 2.150494515923946e-1
      2.177544406980894e-1 2.204934543781684e-1 2.232669206090911e-1 2.260752727505991e-1
      2.289189496134285e-1 2.317983955278737e-1 2.347140604132182e-1 2.376663998480312e-1
      2.406558751413565e-1 2.436829534047912e-1 2.467481076254719e-1 2.498518167399824e-1
      2.529945657091855e-1 2.561768455940022e-1 2.593991536321392e-1 2.626619933157825e-1
      2.659658744702718e-1 2.693113133337583e-1 2.726988326378714e-1 2.761289616893947e-1
      2.796022364529703e-1 2.831191996348472e-1 2.866804007676772e-1 2.902863962963828e-1
      2.939377496651026e-1 2.976350314052280e-1 3.013788192245542e-1 3.051696980975436e-1
      3.090082603567334e-1 3.128951057852865e-1 3.168308417107082e-1 3.208160830997451e-1
      3.248514526544712e-1 3.289375809095899e-1 3.330751063309550e-1 3.372646754153304e-1
      3.415069427914102e-1 3.458025713221020e-1 3.501522322081035e-1 3.545566050927785e-1
      3.590163781683496e-1 3.635322482834346e-1 3.681049210519254e-1 3.727351109632458e-1
      3.774235414939904e-1 3.821709452209668e-1 3.869780639356676e-1 3.918456487601707e-1
      3.967744602645086e-1 4.017652685855076e-1 4.068188535471201e-1 4.119360047822793e-1
      4.171175218562754e-1 4.223642143916938e-1 4.276769021949184e-1 4.330564153842254e-1
      4.385035945194972e-1 4.440192907335544e-1 4.496043658651529e-1 4.552596925936458e-1
      4.609861545753389e-1 4.667846465815686e-1 4.726560746385067e-1 4.786013561687332e-1
      4.846214201345841e-1 4.907172071833000e-1 4.968896697940111e-1 5.031397724265565e-1
      5.094684916721894e-1 5.158768164061687e-1 5.223657479422702e-1 5.289363001892498e-1
      5.355894998092623e-1 5.423263863782854e-1 5.491480125485525e-1 5.560554442130297e-1
      5.630497606719698e-1 5.701320548015476e-1 5.773034332246308e-1 5.845650164836893e-1
      5.919179392158790e-1 5.993633503303388e-1 6.069024131877008e-1 6.145363057818759e-1
      6.222662209241143e-1 6.300933664293815e-1 6.380189653050894e-1 6.460442559421847e-1
      6.541704923086582e-1 6.623989441454762e-1 6.707308971649770e-1 6.791676532517737e-1
      6.877105306661671e-1 6.963608642501349e-1 7.051200056359002e-1 7.139893234571227e-1
      7.229702035627592e-1 7.320640492335954e-1 7.412722814015202e-1 7.505963388715457e-1
      7.600376785466183e-1 7.695977756552741e-1 7.792781239821334e-1 7.890802361013185e-1
      7.990056436127921e-1 8.090558973816686e-1 8.192325677805490e-1 8.295372449348855e-1
      8.399715389714498e-1 8.505370802699151e-1 8.612355197176024e-1 8.720685289674442e-1
      8.830378006991729e-1 8.941450488838152e-1 9.053920090514994e-1 9.167804385626306e-1
      9.283121168824932e-1 9.399888458592827e-1 9.518124500056599e-1 9.637847767838295e-1
      9.759076968942054e-1 9.881831045677224e-1 1.000612917861800e0 1.013199078960057e0
      1.025943554475772e0 1.038848335759171e0 1.051915439208588e0 1.065146906585518e0
      1.078544805333659e0 1.092111228901953e0 1.105848297071678e0 1.119758156287688e0
      1.133842979993782e0 1.148104968972322e0 1.162546351688103e0 1.177169384636552e0
      1.191976352696323e0 1.206969569486295e0 1.222151377727097e0 1.237524149607159e0
      1.253090287153356e0 1.268852222606355e0 1.284812418800635e0 1.300973369549323e0
      1.317337600033857e0 1.333907667198537e0 1.350686160150076e0 1.367675700562128e0
      1.384878943084951e0 1.402298575760192e0 1.419937320440891e0 1.437797933216796e0
      1.455883204844987e0 1.474195961185952e0 1.492739063645130e0 1.511515409620001e0
      1.530527932952830e0 1.549779604389063e0 1.569273432041534e0 1.589012461860475e0
      1.608999778109450e0 1.629238503847293e0 1.649731801416070e0 1.670482872935225e0
      1.691494960801902e0 1.712771348197574e0 1.734315359601067e0 1.756130361307985e0
      1.778219761956733e0 1.800587013061106e0 1.823235609549590e0 1.846169090311470e0
      1.869391038749769e0 1.892905083341178e0 1.916714898203007e0 1.940824203667264e0
      1.965236766861985e0 1.989956402299830e0 2.014986972474132e0 2.040332388462410e0
      2.065996610537470e0 2.091983648786233e0 2.118297563736288e0 2.144942466990387e0
      2.171922521868876e0 2.199241944060215e0 2.226905002279709e0 2.254916018936480e0
      2.283279370808871e0 2.311999489728323e0 2.341080863271841e0 2.370528035463214e0
      2.400345607483002e0 2.430538238387499e0 2.461110645836718e0 2.492067606831513e0
      2.523413958460031e0 2.555154598653478e0 2.587294486951468e0 2.619838645276941e0
      2.652792158720836e0 2.686160176336684e0 2.719947911945115e0 2.754160644948564e0
      2.788803721156175e0 2.823882553619077e0 2.859402623476220e0 2.895369480810777e0
      2.931788745517384e0 2.968666108180256e0 3.006007330962322e0 3.043818248505627e0
      3.082104768842951e0 3.120872874320998e0 3.160128622535129e0 3.199878147275856e0
      3.240127659487304e0 3.280883448237631e0 3.322151881701755e0 3.363939408156372e0
      3.406252556987495e0 3.449097939710728e0 3.492482251004279e0 3.536412269755059e0
      3.580894860117881e0 3.625936972587978e0 3.671545645087075e0 3.717728004063027e0
      3.764491265603391e0 3.811842736562928e0 3.859789815705301e0 3.908339994859189e0
      3.957500860088846e0 4.007280092879489e0 4.057685471337527e0 4.108724871405879e0
      4.160406268094662e0 4.212737736727239e0 4.265727454202061e0 4.319383700270301e0
      4.373714858829553e0 4.428729419233897e0 4.484435977620310e0 4.540843238251881e0
      4.597960014877854e0 4.655795232110767e0 4.714357926820994e0 4.773657249548714e0
      4.833702465933757e0 4.894502958163355e0 4.956068226438100e0 5.018407890456436e0
      5.081531690917675e0 5.145449491044078e0 5.210171278121963e0 5.275707165062221e0
      5.342067391980539e0 5.409262327797366e0 5.477302471858141e0 5.546198455573811e0
      5.615961044081984e0 5.686601137929065e0 5.758129774773418e0 5.830558131110085e0
      5.903897524017112e0 5.978159412923827e0 6.053355401401483e0 6.129497238976245e0
      6.206596822965156e0 6.284666200335085e0 6.363717569585059e0 6.443763282652375e0
      6.524815846842531e0 6.606887926783599e0 6.689992346405055e0 6.774142090941522e0
      6.859350308961808e0 6.945630314423314e0 7.032995588752445e0 7.121459782951070e0
      7.211036719729492e0 7.301740395666353e0 7.393584983395528e0 7.486584833820727e0
      7.580754478357797e0 7.676108631205262e0 7.772662191643531e0 7.870430246362834e0
      7.969428071820646e0 8.069671136628623e0 8.171175103969556e0 8.273955834044884e0
      8.378029386552761e0 8.483412023197520e0 8.590120210230554e0 8.698170621023156e0
      8.807580138671876e0 8.918365858636406e0 9.030545091410906e0 9.144135365228742e0
      9.259154428801265e0 9.375620254091201e0 9.493551039120673e0 9.612965210814785e0
      9.733881427880831e0 9.856318583723706e0 9.980295809398138e0 1.010583247659784e1
      1.023294820068249e1 1.036166284374261e1 1.049199651770301e1 1.062396958746545e1
      1.075760267409055e1 1.089291665801999e1 1.102993268233908e1 1.116867215608033e1
      1.130915675756883e1 1.145140843780934e1 1.159544942391633e1 1.174130222258695e1
      1.188898962361769e1 1.203853470346548e1 1.218996082885326e1 1.234329166042122e1
      1.249855115642375e1 1.265576357647296e1 1.281495348532936e1 1.297614575674006e1
      1.313936557732541e1 1.330463845051449e1 1.347199020052994e1 1.364144697642322e1
      1.381303525616028e1 1.398678185075896e1 1.416271390847817e1 1.434085891905982e1
      1.452124471802430e1 1.470389949101966e1 1.488885177822580e1 1.507613047881391e1
      1.526576485546194e1 1.545778453892711e1 1.565221953267556e1 1.584910021757068e1
      1.604845735662006e1 1.625032209978223e1 1.645472598883406e1 1.666170096229902e1
      1.687127936043782e1 1.708349393030162e1 1.729837783084862e1 1.751596463812555e1
      1.773628835051367e1 1.795938339404131e1 1.818528462776295e1 1.841402734920590e1
      1.864564729988582e1 1.888018067089118e1 1.911766410853840e1 1.935813472009779e1
      1.960163007959160e1 1.984818823366520e1 2.009784770753174e1 2.035064751099196e1
      2.060662714452953e1 2.086582660548290e1 2.112828639429527e1 2.139404752084254e1
      2.166315151084147e1 2.193564041233804e1 2.221155680227740e1 2.249094379315691e1
      2.277384503976225e1 2.306030474598880e1 2.335036767174851e1 2.364407913996357e1
      2.394148504364856e1 2.424263185308090e1 2.454756662306229e1 2.485633700027101e1
      2.516899123070657e1 2.548557816722870e1 2.580614727719022e1 2.613074865016680e1
      2.645943300578345e1 2.679225170163934e1 2.712925674133292e1 2.747050078258718e1
      2.781603714547790e1 2.816591982076480e1 2.852020347832767e1 2.887894347570888e1
      2.924219586676278e1 2.961001741041457e1 2.998246557952884e1 3.035959856988967e1
      3.074147530929416e1 3.112815546675971e1 3.151969946184766e1 3.191616847410390e1
      3.231762445261812e1 3.272413012570382e1 3.313574901069939e1 3.355254542389307e1
      3.397458449057249e1 3.440193215520031e1 3.483465519171872e1 3.527282121398244e1
      3.571649868632395e1 3.616575693425105e1 3.662066615527886e1 3.708129742989883e1
      3.754772273268463e1 3.802001494353886e1 3.849824785908039e1 3.898249620417514e1
      3.947283564361237e1 3.996934279392693e1 4.047209523537131e1 4.098117152403741e1
      4.149665120413093e1 4.201861482040074e1 4.254714393072369e1 4.308232111884867e1
      4.362423000730020e1 4.417295527044448e1 4.472858264772043e1 4.529119895703601e1
      4.586089210833428e1 4.643775111732928e1 4.702186611941461e1 4.761332838374791e1
      4.821223032751117e1 4.881866553035163e1 4.943272874900366e1 5.005451593209429e1
      5.068412423513609e1 5.132165203570722e1 5.196719894882362e1 5.262086584250396e1
      5.328275485353007e1 5.395296940340677e1 5.463161421452082e1 5.531879532650475e1
      5.601462011280552e1 5.671919729746144e1 5.743263697209131e1 5.815505061309556e1
      5.888655109907549e1 5.962725272847035e1 6.037727123741654e1 6.113672381783218e1
      6.190572913572788e1 6.268440734974924e1 6.347288012995151e1 6.427127067681055e1