<UPF version="2.0.1">
  <PP_INFO>
Generated using "atomic" code by A. Dal Corso  v.6.2.2
Author: ADC
Generation date:  4May2018
Pseudopotential type: USPP
Element: Tl
Functional: PBE
    Suggested minimum cutoff for wavefunctions:  45. Ry
    Suggested minimum cutoff for charge density: 210. Ry
    The Pseudo was generated with a Scalar-Relativistic Calculation
    Local Potential by smoothing AE potential with Bessel fncs, cutoff radius:   2.1000
    Pseudopotential contains additional information for GIPAW reconstruction.
    Valence configuration:
    nl pn  l   occ       Rcut    Rcut US       E pseu
    6S  1  0  2.00      1.700      2.000    -0.701606
    6P  2  1  1.00      2.200      2.400    -0.174212
    5D  3  2 10.00      1.400      1.600    -1.138178
    Generation configuration:
    6S  1  0  2.00      1.700      2.000    -0.701603
    6S  1  0  0.00      1.700      2.000     4.000000
    6P  2  1  1.00      2.200      2.400    -0.174212
    6P  2  1  0.00      2.200      2.400     6.000000
    5D  3  2 10.00      1.400      1.600    -1.138176
    5D  3  2  0.00      1.400      1.600     7.600000
    Pseudization used: troullier-martins

    <PP_INPUTFILE>
 &amp;input
   title='Tl',
   zed=81.,
   rel=1,
   config='[Xe] 4f14 6s2 6p1 5d10',
   iswitch=3,
   dft='PBE'
 /
 &amp;inputp
   lpaw=.false.,
   use_xsd=.FALSE.,
   pseudotype=3,
   file_pseudopw='Tl.pbe-dn-rrkjus_psl.1.0.0.UPF',
   author='ADC',
   lloc=-1,
   rcloc=2.1,
   which_augfun='PSQ',
   rmatch_augfun_nc=.true.,
   nlcc=.true.,
   new_core_ps=.true.,
   rcore=1.6,
   tm=.true.
 /
6
6S  1  0  2.00  0.00  1.70  2.00  0.0
6S  1  0  0.00  4.00  1.70  2.00  0.0
6P  2  1  1.00  0.00  2.20  2.40  0.0
6P  2  1  0.00  6.00  2.20  2.40  0.0
5D  3  2 10.00  0.00  1.40  1.60  0.0
5D  3  2  0.00  7.60  1.40  1.60  0.0
</PP_INPUTFILE>
  </PP_INFO>
  <!--
 END OF HUMAN READABLE SECTION 
-->
  <PP_HEADER generated="Generated using &quot;atomic&quot; code by A. Dal Corso  v.6.2.2" author="ADC" date=" 4May2018" comment="" element="Tl" pseudo_type="USPP" relativistic="scalar" is_ultrasoft="true" is_paw="false" is_coulomb="false" has_so="false" has_wfc="false" has_gipaw="true" paw_as_gipaw="false" core_correction="true" functional="PBE" z_valence="1.300000000000e1" total_psenergy="-1.166852382904e2" wfc_cutoff="4.454655107976e1" rho_cutoff="2.101456167304e2" l_max="2" l_max_rho="4" l_local="-1" mesh_size="1281" number_of_wfc="3" number_of_proj="6"/>
  <PP_MESH dx="1.250000000000e-2" mesh="1281" xmin="-7.000000000000e0" rmax="1.000000000000e2" zmesh="8.100000000000e1">
    <PP_R>
      1.125780204388292e-5 1.139940776134596e-5 1.154279465946398e-5 1.168798514273153e-5
      1.183500189745704e-5 1.198386789530752e-5 1.213460639689801e-5 1.228724095542606e-5
      1.244179542035198e-5 1.259829394112537e-5 1.275676097095848e-5 1.291722127064714e-5
      1.307969991243963e-5 1.324422228395428e-5 1.341081409214639e-5 1.357950136732492e-5
      1.375031046721979e-5 1.392326808110040e-5 1.409840123394577e-5 1.427573729066738e-5
      1.445530396038487e-5 1.463712930075571e-5 1.482124172235927e-5 1.500766999313599e-5
      1.519644324288248e-5 1.538759096780308e-5 1.558114303511870e-5 1.577712968773364e-5
      1.597558154896108e-5 1.617652962730815e-5 1.638000532132089e-5 1.658604042449046e-5
      1.679466713022091e-5 1.700591803685947e-5 1.721982615279011e-5 1.743642490159114e-5
      1.765574812725771e-5 1.787783009949007e-5 1.810270551904819e-5 1.833040952317391e-5
      1.856097769108114e-5 1.879444604951520e-5 1.903085107838210e-5 1.927022971644855e-5
      1.951261936711379e-5 1.975805790425389e-5 2.000658367813959e-5 2.025823552142872e-5
      2.051305275523375e-5 2.077107519526594e-5 2.103234315805647e-5 2.129689746725608e-5
      2.156477946001382e-5 2.183603099343606e-5 2.211069445112679e-5 2.238881274981006e-5
      2.267042934603589e-5 2.295558824297038e-5 2.324433399727133e-5 2.353671172605032e-5
      2.383276711392234e-5 2.413254642014404e-5 2.443609648584192e-5 2.474346474133134e-5
      2.505469921352757e-5 2.536984853345011e-5 2.568896194382136e-5 2.601208930676091e-5
      2.633928111157664e-5 2.667058848265375e-5 2.700606318744303e-5 2.734575764454959e-5
      2.768972493192349e-5 2.803801879515317e-5 2.839069365586341e-5 2.874780462021869e-5
      2.910940748753373e-5 2.947555875899226e-5 2.984631564647535e-5 3.022173608150102e-5
      3.060187872427603e-5 3.098680297286171e-5 3.137656897245504e-5 3.177123762478642e-5
      3.217087059763579e-5 3.257553033446817e-5 3.298528006419074e-5 3.340018381103242e-5
      3.382030640454775e-5 3.424571348974678e-5 3.467647153735201e-5 3.511264785418478e-5
      3.555431059368201e-5 3.600152876654528e-5 3.645437225152404e-5 3.691291180633407e-5
      3.737721907871378e-5 3.784736661761905e-5 3.832342788455938e-5 3.880547726507630e-5
      3.929359008036626e-5 3.978784259904971e-5 4.028831204908825e-5 4.079507662985163e-5
      4.130821552433670e-5 4.182780891153966e-5 4.235393797898437e-5 4.288668493540807e-5
      4.342613302360652e-5 4.397236653344111e-5 4.452547081500901e-5 4.508553229197955e-5
      4.565263847509793e-5 4.622687797585901e-5 4.680834052035319e-5 4.739711696328596e-5
      4.799329930217445e-5 4.859698069172202e-5 4.920825545837396e-5 4.982721911505627e-5
      5.045396837609958e-5 5.108860117235107e-5 5.173121666647630e-5 5.238191526845358e-5
      5.304079865126345e-5 5.370796976677492e-5 5.438353286183216e-5 5.506759349454323e-5
      5.576025855077365e-5 5.646163626084783e-5 5.717183621645983e-5 5.789096938779767e-5
      5.861914814088244e-5 5.935648625512576e-5 6.010309894110819e-5 6.085910285858088e-5
      6.162461613469404e-5 6.239975838245448e-5 6.318465071941546e-5 6.397941578660154e-5
      6.478417776767140e-5 6.559906240832193e-5 6.642419703593607e-5 6.725971057947810e-5
      6.810573358963916e-5 6.896239825923579e-5 6.982983844386554e-5 7.070818968282202e-5
      7.159758922027335e-5 7.249817602670682e-5 7.341009082064315e-5 7.433347609062418e-5
      7.526847611747700e-5 7.621523699685804e-5 7.717390666208100e-5 7.814463490723144e-5
      7.912757341057263e-5 8.012287575824553e-5 8.113069746826683e-5 8.215119601482932e-5
      8.318453085290701e-5 8.423086344317070e-5 8.529035727721643e-5 8.636317790311125e-5
      8.744949295126080e-5 8.854947216060122e-5 8.966328740512214e-5 9.079111272072144e-5
      9.193312433239925e-5 9.308950068179353e-5 9.426042245506125e-5 9.544607261111199e-5
      9.664663641019475e-5 9.786230144284563e-5 9.909325765919949e-5 1.003396973986693e-4
      1.016018154200004e-4 1.028798089317013e-4 1.041738776228584e-4 1.054842236943376e-4
      1.068110518903782e-4 1.081545695305855e-4 1.095149865423242e-4 1.108925154935199e-4
      1.122873716258743e-4 1.136997728884955e-4 1.151299399719546e-4 1.165780963427680e-4
      1.180444682783149e-4 1.195292849021937e-4 1.210327782200225e-4 1.225551831556915e-4
      1.240967375880689e-4 1.256576823881712e-4 1.272382614567994e-4 1.288387217626482e-4
      1.304593133808970e-4 1.321002895322831e-4 1.337619066226686e-4 1.354444242831048e-4
      1.371481054103989e-4 1.388732162081934e-4 1.406200262285602e-4 1.423888084141188e-4
      1.441798391406846e-4 1.459933982604520e-4 1.478297691457237e-4 1.496892387331864e-4
      1.515720975687461e-4 1.534786398529270e-4 1.554091634868395e-4 1.573639701187293e-4
      1.593433651911096e-4 1.613476579884874e-4 1.633771616856906e-4 1.654321933968004e-4
      1.675130742247029e-4 1.696201293112610e-4 1.717536878881187e-4 1.739140833281449e-4
      1.761016531975217e-4 1.783167393084923e-4 1.805596877727682e-4 1.828308490556099e-4
      1.851305780305891e-4 1.874592340350363e-4 1.898171809261905e-4 1.922047871380505e-4
      1.946224257389443e-4 1.970704744898225e-4 1.995493159032824e-4 2.020593373033386e-4
      2.046009308859414e-4 2.071744937802587e-4 2.097804281107294e-4 2.124191410598936e-4
      2.150910449320187e-4 2.177965572175205e-4 2.205361006581979e-4 2.233101033132878e-4
      2.261189986263479e-4 2.289632254929862e-4 2.318432283294372e-4 2.347594571420031e-4
      2.377123675973695e-4 2.407024210938024e-4 2.437300848332443e-4 2.467958318943140e-4
      2.499001413062270e-4 2.530434981236451e-4 2.562263935024659e-4 2.594493247765683e-4
      2.627127955355207e-4 2.660173157032688e-4 2.693634016178120e-4 2.727515761118821e-4
      2.761823685946371e-4 2.796563151343824e-4 2.831739585423325e-4 2.867358484574268e-4
      2.903425414322113e-4 2.939946010198009e-4 2.976925978619366e-4 3.014371097781487e-4
      3.052287218560420e-4 3.090680265427179e-4 3.129556237373450e-4 3.168921208848943e-4
      3.208781330710537e-4 3.249142831183372e-4 3.290012016834010e-4 3.331395273555863e-4
      3.373299067566984e-4 3.415729946420441e-4 3.458694540027385e-4 3.502199561692975e-4
      3.546251809165362e-4 3.590858165697837e-4 3.636025601124357e-4 3.681761172948606e-4
      3.728072027446728e-4 3.774965400783963e-4 3.822448620145296e-4 3.870529104880356e-4
      3.919214367662710e-4 3.968512015663712e-4 4.018429751741165e-4 4.068975375642885e-4
      4.120156785225443e-4 4.171981977688216e-4 4.224459050822968e-4 4.277596204279138e-4
      4.331401740845065e-4 4.385884067745303e-4 4.441051697954279e-4 4.496913251526450e-4
      4.553477456943211e-4 4.610753152476743e-4 4.668749287570999e-4 4.727474924240083e-4
      4.786939238484198e-4 4.847151521723434e-4 4.908121182249545e-4 4.969857746696031e-4
      5.032370861526694e-4 5.095670294542908e-4 5.159765936409867e-4 5.224667802202014e-4
      5.290386032967924e-4 5.356930897314861e-4 5.424312793013263e-4 5.492542248621424e-4
      5.561629925130594e-4 5.631586617630790e-4 5.702423256997546e-4 5.774150911599874e-4
      5.846780789029744e-4 5.920324237853269e-4 5.994792749383945e-4 6.070197959478220e-4
      6.146551650353573e-4 6.223865752429552e-4 6.302152346191903e-4 6.381423664080176e-4
      6.461692092399060e-4 6.542970173253803e-4 6.625270606509893e-4 6.708606251777470e-4
      6.792990130420648e-4 6.878435427592146e-4 6.964955494293501e-4 7.052563849461146e-4
      7.141274182078826e-4 7.231100353316489e-4 7.322056398696139e-4 7.414156530284933e-4
      7.507415138915798e-4 7.601846796436078e-4 7.697466257984377e-4 7.794288464296095e-4
      7.892328544037972e-4 7.991601816171921e-4 8.092123792348684e-4 8.193910179331560e-4
      8.296976881450588e-4 8.401340003087677e-4 8.507015851192909e-4 8.614020937832549e-4
      8.722371982769090e-4 8.832085916073730e-4 8.943179880771785e-4 9.055671235521251e-4
      9.169577557325173e-4 9.284916644278079e-4 9.401706518346955e-4 9.519965428187248e-4
      9.639711851994219e-4 9.760964500390207e-4 9.883742319348221e-4 1.000806449315225e-3
      1.013395044739491e-3 1.026141985201266e-3 1.039049262435931e-3 1.052118893231813e-3
      1.065352919745315e-3 1.078753409820005e-3 1.092322457309720e-3 1.106062182405737e-3
      1.119974731968056e-3 1.134062279860851e-3 1.148327027292142e-3 1.162771203157737e-3
      1.177397064389502e-3 1.192206896308011e-3 1.207203012979630e-3 1.222387757578103e-3
      1.237763502750663e-3 1.253332650988779e-3 1.269097635003536e-3 1.285060918105761e-3
      1.301224994590918e-3 1.317592390128842e-3 1.334165662158386e-3 1.350947400287024e-3
      1.367940226695481e-3 1.385146796547454e-3 1.402569798404491e-3 1.420211954646080e-3
      1.438076021895025e-3 1.456164791448180e-3 1.474481089712588e-3 1.493027778647120e-3
      1.511807756209654e-3 1.530823956809892e-3 1.550079351767868e-3 1.569576949778217e-3
      1.589319797380299e-3 1.609310979434218e-3 1.629553619602843e-3 1.650050880839883e-3
      1.670805965884108e-3 1.691822117759784e-3 1.713102620283399e-3 1.734650798576768e-3
      1.756470019586589e-3 1.778563692610534e-3 1.800935269829968e-3 1.823588246849344e-3
      1.846526163242409e-3 1.869752603105268e-3 1.893271195616401e-3 1.917085615603741e-3
      1.941199584118860e-3 1.965616869018399e-3 1.990341285552801e-3 2.015376696962449e-3
      2.040727015081316e-3 2.066396200948180e-3 2.092388265425557e-3 2.118707269826406e-3
      2.145357326548705e-3 2.172342599718044e-3 2.199667305838253e-3 2.227335714450258e-3
      2.255352148799195e-3 2.283720986509929e-3 2.312446660271075e-3 2.341533658527597e-3
      2.370986526182151e-3 2.400809865305231e-3 2.431008335854248e-3 2.461586656401669e-3
      2.492549604872289e-3 2.523902019289804e-3 2.555648798532751e-3 2.587794903099972e-3
      2.620345355885717e-3 2.653305242964453e-3 2.686679714385592e-3 2.720473984978197e-3
      2.754693335165801e-3 2.789343111791492e-3 2.824428728953364e-3 2.859955668850480e-3
      2.895929482639479e-3 2.932355791301952e-3 2.969240286522743e-3 3.006588731579269e-3
      3.044406962242057e-3 3.082700887686589e-3 3.121476491416622e-3 3.160739832199138e-3
      3.200497045011007e-3 3.240754341997623e-3 3.281518013443541e-3 3.322794428755357e-3
      3.364590037456947e-3 3.406911370197200e-3 3.449765039770463e-3 3.493157742149791e-3
      3.537096257533211e-3 3.581587451403152e-3 3.626638275599172e-3 3.672255769404206e-3
      3.718447060644472e-3 3.765219366803202e-3 3.812579996148393e-3 3.860536348874739e-3
      3.909095918259919e-3 3.958266291835443e-3 4.008055152572219e-3 4.058470280081039e-3
      4.109519551828144e-3 4.161210944366104e-3 4.213552534580172e-3 4.266552500950302e-3
      4.320219124829078e-3 4.374560791735664e-3 4.429585992666071e-3 4.485303325419896e-3
      4.541721495943732e-3 4.598849319691519e-3 4.656695723001939e-3 4.715269744493199e-3
      4.774580536475327e-3 4.834637366380234e-3 4.895449618209789e-3 4.957026794002059e-3
      5.019378515316041e-3 5.082514524735046e-3 5.146444687388993e-3 5.211178992495871e-3
      5.276727554922553e-3 5.343100616765277e-3 5.410308548949994e-3 5.478361852852838e-3
      5.547271161941008e-3 5.617047243434242e-3 5.687700999987236e-3 5.759243471393193e-3
      5.831685836308824e-3 5.905039414001038e-3 5.979315666115587e-3 6.054526198467980e-3
      6.130682762856912e-3 6.207797258900506e-3 6.285881735895670e-3 6.364948394700792e-3
      6.445009589642176e-3 6.526077830444415e-3 6.608165784185065e-3 6.691286277273917e-3
      6.775452297457118e-3 6.860676995846564e-3 6.946973688974766e-3 7.034355860875595e-3
      7.122837165191196e-3 7.212431427305383e-3 7.303152646503895e-3 7.395014998161800e-3
      7.488032835958437e-3 7.582220694120222e-3 7.677593289691607e-3 7.774165524834697e-3
      7.871952489157701e-3 7.970969462072741e-3 8.071231915183301e-3 8.172755514701658e-3
      8.275556123896786e-3 8.379649805573022e-3 8.485052824579904e-3 8.591781650353605e-3
      8.699852959490293e-3 8.809283638351888e-3 8.920090785704604e-3 9.032291715390638e-3
      9.145903959033557e-3 9.260945268777556e-3 9.377433620061346e-3 9.495387214426803e-3
      9.614824482363025e-3 9.735764086186133e-3 9.858224922955275e-3 9.982226127425344e-3
      1.010778707503682e-2 1.023492738494321e-2 1.036366692307664e-2 1.049402580525183e-2
      1.062602440030936e-2 1.075968333329825e-2 1.089502348869871e-2 1.103206601368538e-2
      1.117083232143160e-2 1.131134409445528e-2 1.145362328800684e-2 1.159769213349970e-2
      1.174357314198413e-2 1.189128910766447e-2 1.204086311146090e-2 1.219231852461583e-2
      1.234567901234568e-2 1.250096853753870e-2 1.265821136449913e-2 1.281743206273859e-2
      1.297865551081512e-2 1.314190690022049e-2 1.330721173931644e-2 1.347459585732040e-2
      1.364408540834134e-2 1.381570687546644e-2 1.398948707489909e-2 1.416545316014904e-2
      1.434363262627510e-2 1.452405331418137e-2 1.470674341496739e-2 1.489173147433310e-2
      1.507904639703914e-2 1.526871745142327e-2 1.546077427397364e-2 1.565524687395951e-2
      1.585216563812026e-2 1.605156133541347e-2 1.625346512182249e-2 1.645790854522473e-2
      1.666492355032104e-2 1.687454248362712e-2 1.708679809852780e-2 1.730172356039474e-2
      1.751935245176861e-2 1.773971877760649e-2 1.796285697059508e-2 1.818880189653106e-2
      1.841758885976877e-2 1.864925360873671e-2 1.888383234152320e-2 1.912136171153250e-2
      1.936187883321196e-2 1.960542128785116e-2 1.985202712945412e-2 2.010173489068532e-2
      2.035458358889047e-2 2.061061273219313e-2 2.086986232566780e-2 2.113237287759093e-2
      2.139818540577032e-2 2.166734144395430e-2 2.193988304832147e-2 2.221585280405197e-2
      2.249529383198161e-2 2.277824979533952e-2 2.306476490657065e-2 2.335488393424408e-2
      2.364865221004811e-2 2.394611563587352e-2 2.424732069098579e-2 2.455231443928755e-2
      2.486114453667255e-2 2.517385923847180e-2 2.549050740699367e-2 2.581113851915873e-2
      2.613580267423055e-2 2.646455060164395e-2 2.679743366893140e-2 2.713450388974942e-2
      2.747581393200579e-2 2.782141712608899e-2 2.817136747320129e-2 2.852571965379635e-2
      2.888452903612336e-2 2.924785168487828e-2 2.961574436996417e-2 2.998826457536159e-2
      3.036547050811050e-2 3.074742110740534e-2 3.113417605380432e-2 3.152579577855465e-2
      3.192234147303514e-2 3.232387509831731e-2 3.273045939484702e-2 3.314215789224781e-2
      3.355903491924747e-2 3.398115561372972e-2 3.440858593291175e-2 3.484139266365061e-2
      3.527964343287859e-2 3.572340671816989e-2 3.617275185844080e-2 3.662774906478356e-2
      3.708846943143743e-2 3.755498494689711e-2 3.802736850516087e-2 3.850569391712093e-2
      3.899003592209591e-2 3.948047019950956e-2 3.997707338071559e-2 4.047992306097129e-2
      4.098909781156236e-2 4.150467719207939e-2 4.202674176284960e-2 4.255537309752441e-2
      4.309065379582520e-2 4.363266749645029e-2 4.418149889014297e-2 4.473723373292520e-2
      4.529995885949686e-2 4.586976219680375e-2 4.644673277777672e-2 4.703096075524275e-2
      4.762253741601202e-2 4.822155519514142e-2 4.882810769037749e-2 4.944228967678184e-2
      5.006419712153920e-2 5.069392719895323e-2 5.133157830562975e-2 5.197725007585135e-2
      5.263104339714594e-2 5.329306042604994e-2 5.396340460407107e-2 5.464218067385107e-2
      5.532949469553166e-2 5.602545406332725e-2 5.673016752230482e-2 5.744374518537616e-2
      5.816629855050302e-2 5.889794051811855e-2 5.963878540876895e-2 6.038894898097539e-2
      6.114854844932238e-2 6.191770250277237e-2 6.269653132321089e-2 6.348515660422582e-2
      6.428370157012163e-2 6.509229099517395e-2 6.591105122312568e-2 6.674011018692799e-2
      6.757959742873093e-2 6.842964412012376e-2 6.929038308263154e-2 7.016194880846848e-2
      7.104447748155224e-2 7.193810699878370e-2 7.284297699159282e-2 7.375922884775708e-2
      7.468700573349323e-2 7.562645261582698e-2 7.657771628524533e-2 7.754094537863168e-2
      7.851629040249173e-2 7.950390375646993e-2 8.050393975716190e-2 8.151655466222758e-2
      8.254190669480582e-2 8.358015606823795e-2 8.463146501110103e-2 8.569599779255599e-2
      8.677392074801606e-2 8.786540230513575e-2 8.897061301012920e-2 9.008972555441774e-2
      9.122291480161298e-2 9.237035781484058e-2 9.353223388440554e-2 9.470872455580775e-2
      9.590001365810835e-2 9.710628733265299e-2 9.832773406215779e-2 9.956454470015895e-2
      1.008169125008352e-1 1.020850331492034e-1 1.033691047916946e-1 1.046693280671158e-1
      1.059859061379987e-1 1.073190447223457e-1 1.086689521257730e-1 1.100358392740585e-1
      1.114199197461003e-1 1.128214098072880e-1 1.142405284432949e-1 1.156774973942955e-1
      1.171325411896114e-1 1.186058871827964e-1 1.200977655871591e-1 1.216084095117355e-1
      1.231380549977127e-1 1.246869410553093e-1 1.262553097011236e-1 1.278434059959468e-1
      1.294514780830564e-1 1.310797772269878e-1 1.327285578527945e-1 1.343980775858043e-1
      1.360885972918717e-1 1.378003811181403e-1 1.395336965343159e-1 1.412888143744583e-1
      1.430660088793013e-1 1.448655577391014e-1 1.466877421370296e-1 1.485328467931054e-1
      1.504011600086849e-1 1.522929737115094e-1 1.542085835013187e-1 1.561482886960398e-1
      1.581123923785561e-1 1.601012014440634e-1 1.621150266480250e-1 1.641541826547258e-1
      1.662189880864409e-1 1.683097655732193e-1 1.704268418032975e-1 1.725705475741438e-1
      1.747412178441458e-1 1.769391917849500e-1 1.791648128344559e-1 1.814184287504808e-1
      1.837003916650970e-1 1.860110581396517e-1 1.883507892204837e-1 1.907199504953337e-1
      1.931189121504713e-1 1.955480490285362e-1 1.980077406871071e-1 2.004983714580105e-1
      2.030203305073711e-1 2.055740118964215e-1 2.081598146430747e-1 2.107781427842699e-1
      2.134294054391070e-1 2.161140168727690e-1 2.188323965612548e-1 2.215849692569217e-1
      2.243721650548527e-1 2.271944194600626e-1 2.300521734555434e-1 2.329458735711714e-1
      2.358759719534774e-1 2.388429264362941e-1 2.418472006122965e-1 2.448892639054362e-1
      2.479695916442922e-1 2.510886651363411e-1 2.542469717431609e-1 2.574450049565856e-1
      2.606832644758102e-1 2.639622562854734e-1 2.672824927347170e-1 2.706444926172404e-1
      2.740487812523662e-1 2.774958905671189e-1 2.809863591793423e-1 2.845207324818593e-1
      2.880995627276879e-1 2.917234091163365e-1 2.953928378811747e-1 2.991084223779133e-1
      3.028707431741898e-1 3.066803881402820e-1 3.105379525409679e-1 3.144440391285320e-1
      3.183992582369513e-1 3.224042278772592e-1 3.264595738341087e-1 3.305659297635575e-1
      3.347239372920729e-1 3.389342461167914e-1 3.431975141070332e-1 3.475144074070944e-1
      3.518856005403372e-1 3.563117765145807e-1 3.607936269288264e-1 3.653318520813207e-1
      3.699271610789756e-1 3.745802719481724e-1 3.792919117469498e-1 3.840628166786131e-1
      3.888937322067650e-1 3.937854131717840e-1 3.987386239087743e-1 4.037541383669899e-1
      4.088327402307693e-1 4.139752230419872e-1 4.191823903240439e-1 4.244550557074226e-1
      4.297940430568154e-1 4.352001865998586e-1 4.406743310574804e-1 4.462173317758880e-1
      4.518300548602227e-1 4.575133773098839e-1 4.632681871555678e-1 4.690953835980222e-1
      4.749958771485449e-1 4.809705897712595e-1 4.870204550271672e-1 4.931464182200239e-1
      4.993494365440424e-1 5.056304792334544e-1 5.119905277139606e-1 5.184305757560742e-1
      5.249516296304048e-1 5.315547082648884e-1 5.382408434039939e-1 5.450110797699419e-1
      5.518664752259364e-1 5.588081009414663e-1 5.658370415596731e-1 5.729543953668269e-1
      5.801612744639426e-1 5.874588049405396e-1 5.948481270506027e-1 6.023303953907465e-1
      6.099067790806196e-1 6.175784619455903e-1 6.253466427017119e-1 6.332125351430333e-1
      6.411773683312529e-1 6.492423867877587e-1 6.574088506880949e-1 6.656780360588588e-1
      6.740512349770893e-1 6.825297557721541e-1 6.911149232301748e-1 6.998080788010355e-1
      7.086105808079783e-1 7.175238046598516e-1 7.265491430660180e-1 7.356880062539628e-1
      7.449418221896550e-1 7.543120368006590e-1 7.638001142020727e-1 7.734075369252952e-1
      7.831358061496710e-1 7.929864419370611e-1 8.029609834693458e-1 8.130609892889346e-1
      8.232880375422866e-1 8.336437262264955e-1 8.441296734389903e-1 8.547475176303536e-1
      8.654989178603440e-1 8.763855540571226e-1 8.874091272797415e-1 8.985713599839473e-1
      9.098739962913067e-1 9.213188022617397e-1 9.329075661694652e-1 9.446420987824183e-1
      9.565242336451972e-1 9.685558273655451e-1 9.807387599044610e-1 9.930749348699422e-1
      1.005566279814422e0 1.018214746535964e0 1.031022311383226e0 1.043990975564272e0
      1.057122765459268e0 1.070419732937097e0 1.083883955675987e0 1.097517537488127e0
      1.111322608648418e0 1.125301326227314e0 1.139455874427875e0 1.153788464927059e0
      1.168301337221286e0 1.182996758976381e0 1.197877026381895e0 1.212944464509877e0
      1.228201427678197e0 1.243650299818384e0 1.259293494848144e0 1.275133457048529e0
      1.291172661445855e0 1.307413614198445e0 1.323858852988204e0 1.340510947417155e0
      1.357372499408934e0 1.374446143615337e0 1.391734547828016e0 1.409240413395297e0
      1.426966475644292e0 1.444915504308295e0 1.463090303959547e0 1.481493714447476e0
      1.500128611342407e0 1.518997906384896e0 1.538104547940685e0 1.557451521461385e0
      1.577041849950976e0 1.596878594438135e0 1.616964854454551e0 1.637303768519218e0
      1.657898514628834e0 1.678752310754384e0 1.699868415343935e0 1.721250127831792e0
      1.742900789154037e0 1.764823782270543e0 1.787022532693594e0 1.809500509023101e0
      1.832261223488600e0 1.855308232498037e0 1.878645137193452e0 1.902275584013691e0
      1.926203265264137e0 1.950431919693672e0 1.974965333078848e0 1.999807338815412e0
      2.024961818517308e0 2.050432702623162e0 2.076223971010438e0 2.102339653617298e0
      2.128783831072276e0 2.155560635331907e0 2.182674250326327e0 2.210128912613045e0
      2.237928912038906e0 2.266078592410370e0 2.294582352172275e0 2.323444645095068e0
      2.352669980970741e0 2.382262926317489e0 2.412228105093221e0 2.442570199418096e0
      2.473293950306072e0 2.504404158405739e0 2.535905684750412e0 2.567803451517662e0
      2.600102442798454e0 2.632807705375877e0 2.665924349513754e0 2.699457549755113e0
      2.733412545730706e0 2.767794642977744e0 2.802609213768866e0 2.837861697951590e0
      2.873557603798300e0 2.909702508866896e0 2.946302060872344e0 2.983361978569096e0
      3.020888052644696e0 3.058886146624572e0 3.097362197788205e0 3.136322218096880e0
      3.175772295133025e0 3.215718593051442e0 3.256167353542460e0 3.297124896807187e0
      3.338597622545100e0 3.380592010953957e0 3.423114623742395e0 3.466172105155179e0
      3.509771183011369e0 3.553918669755596e0 3.598621463522471e0 3.643886549214472e0
      3.689720999593340e0 3.736131976385183e0 3.783126731399563e0 3.830712607662548e0
      3.878897040564126e0 3.927687559019976e0 3.977091786647859e0 4.027117442958868e0
      4.077772344563567e0 4.129064406393396e0 4.181001642937377e0 4.233592169494375e0
      4.286844203441174e0 4.340766065516405e0 4.395366181120730e0 4.450653081633305e0
      4.506635405744801e0 4.563321900807274e0 4.620721424200891e0 4.678842944717970e0
      4.737695543964350e0 4.797288417778380e0 4.857630877667857e0 4.918732352264888e0
      4.980602388799199e0 5.043250654589883e0 5.106686938555911e0 5.170921152745732e0
      5.235963333885983e0 5.301823644949802e0 5.368512376744797e0 5.436039949520974e0
      5.504416914598982e0 5.573653956018710e0 5.643761892208752e0 5.714751677676785e0
      5.786634404721197e0 5.859421305164357e0 5.933123752107523e0 6.007753261707991e0
      6.083321494978478e0 6.159840259609160e0 6.237321511812710e0 6.315777358192398e0
      6.395220057633852e0 6.475662023220499e0 6.557115824173100e0 6.639594187813795e0
      6.723110001554685e0 6.807676314911590e0 6.893306341543037e0 6.980013461314877e0
      7.067811222391010e0 7.156713343350202e0 7.246733715329738e0 7.337886404195904e0
      7.430185652741756e0 7.523645882912692e0 7.618281698059800e0 7.714107885221741e0
      7.811139417435236e0 7.909391456074578e0 8.008879353220728e0 8.109618654059997e0
      8.211625099313109e0 8.314914627694684e0 8.419503378403649e0 8.525407693645116e0
      8.632644121183775e0 8.741229416929622e0 8.851180547556050e0 8.962514693150881e0
      9.075249249900912e0 9.189401832809963e0 9.304990278451374e0 9.422032647754959e0
      9.540547228829013e0 9.660552539817981e0 9.782067331795826e0 9.905110591696037e0
      1.002970154527832e1 1.015585966013262e1 1.028360464872110e1 1.041295647145807e1
      1.054393533982903e1 1.067656171954867e1 1.081085633375859e1 1.094684016626555e1
      1.108453446481998e1 1.122396074443620e1 1.136514079075409e1 1.150809666344307e1
      1.165285069964913e1 1.179942551748491e1 1.194784401956391e1 1.209812939657906e1
      1.225030513092625e1 1.240439500037360e1 1.256042308177668e1 1.271841375484067e1
      1.287839170592968e1 1.304038193192401e1 1.320440974412610e1 1.337050077221526e1
      1.353868096825258e1 1.370897661073587e1 1.388141430870569e1 1.405602100590322e1
      1.423282398498010e1 1.441185087176154e1 1.459312963956287e1 1.477668861356029e1
      1.496255647521702e1 1.515076226676453e1 1.534133539574069e1 1.553430563958465e1
      1.572970315028956e1 1.592755845911405e1 1.612790248135263e1 1.633076652116639e1
      1.653618227647431e1 1.674418184390603e1 1.695479772381719e1 1.716806282536747e1
      1.738401047166291e1 1.760267440496262e1 1.782408879195100e1 1.804828822907653e1
      1.827530774795736e1 1.850518282085521e1 1.873794936621794e1 1.897364375429176e1
      1.921230281280440e1 1.945396383271924e1 1.969866457406233e1 1.994644327182241e1
      2.019733864192502e1 2.045138988728229e1 2.070863670391807e1 2.096911928717089e1
      2.123287833797437e1 2.149995506921675e1 2.177039121218074e1 2.204422902306379e1
      2.232151128958102e1 2.260228133765077e1 2.288658303816418e1 2.317446081384046e1
      2.346595964616766e1 2.376112508243145e1 2.406000324283179e1 2.436264082768924e1
      2.466908512474223e1 2.497938401653557e1 2.529358598790244e1 2.561174013354017e1
      2.593389616568121e1 2.626010442186109e1 2.659041587278346e1 2.692488213028456e1
      2.726355545539767e1 2.760648876651877e1 2.795373564767551e1 2.830535035689948e1
      2.866138783470440e1 2.902190371267059e1 2.938695432213736e1 2.975659670300523e1
      3.013088861264816e1 3.050988853493859e1 3.089365568938550e1 3.128225004038746e1
      3.167573230660251e1 3.207416397043520e1 3.247760728764365e1 3.288612529706706e1
      3.329978183047543e1 3.371864152254380e1 3.414276982095112e1 3.457223299660696e1
      3.500709815400634e1 3.544743324171471e1 3.589330706298553e1 3.634478928651038e1
      3.680195045730529e1 3.726486200773337e1 3.773359626866604e1 3.820822648078536e1
      3.868882680602748e1 3.917547233917106e1 3.966823911957084e1 4.016720414303862e1
      4.067244537387464e1 4.118404175704899e1 4.170207323053748e1 4.222662073781182e1
      4.275776624048709e1 4.329559273112888e1 4.384018424622041e1 4.439162587929394e1
      4.495000379422665e1 4.551540523870363e1 4.608791855785105e1 4.666763320803965e1
      4.725463977086305e1 4.784902996729103e1 4.845089667200092e1 4.906033392789002e1
      4.967743696076930e1 5.030230219424322e1 5.093502726477590e1 5.157571103694674e1
      5.222445361889879e1 5.288135637798018e1 5.354652195658359e1 5.422005428818405e1