<UPF version="2.0.1">
  <PP_INFO>
Generated using "atomic" code by A. Dal Corso  v.6.2.2
Author: ADC
Generation date:  4May2018
Pseudopotential type: USPP
Element:  W
Functional: PBE
    Suggested minimum cutoff for wavefunctions:  50. Ry
    Suggested minimum cutoff for charge density: 475. Ry
    The Pseudo was generated with a Scalar-Relativistic Calculation
    Local Potential by smoothing AE potential with Bessel fncs, cutoff radius:   2.1000
    Pseudopotential contains additional information for GIPAW reconstruction.
    Valence configuration:
    nl pn  l   occ       Rcut    Rcut US       E pseu
    5S  1  0  2.00      0.950      1.500    -5.811662
    6S  2  0  2.00      0.950      1.500    -0.419870
    5P  2  1  6.00      1.100      1.600    -3.175208
    6P  3  1  0.00      1.100      1.600    -0.100050
    5D  3  2  4.00      1.100      2.000    -0.329254
    Generation configuration:
    5S  1  0  2.00      0.950      1.500    -5.811732
    6S  2  0  2.00      0.950      1.500    -0.419876
    5P  2  1  6.00      1.100      1.600    -3.175258
    6P  3  1  0.00      1.100      1.600    -0.100053
    5D  3  2  4.00      1.100      2.000    -0.329275
    5D  3  2  0.00      1.100      2.000     0.300000
    Pseudization used: troullier-martins

    <PP_INPUTFILE>
 &amp;input
   title='W',
   zed=74.,
   rel=1,
   config='[Xe] 4f14 6s2 6p0 5d4',
   iswitch=3,
   dft='PBE'
 /
 &amp;inputp
   lpaw=.false.,
   use_xsd=.FALSE.,
   pseudotype=3,
   file_pseudopw='W.pbe-spn-rrkjus_psl.1.0.0.UPF',
   author='ADC',
   lloc=-1,
   rcloc=2.1,
   which_augfun='PSQ',
   rmatch_augfun_nc=.true.,
   nlcc=.true.,
   new_core_ps=.true.,
   rcore=1.2,
   tm=.true.
 /
6
5S  1  0  2.00  0.00  0.95  1.50  0.0
6S  2  0  2.00  0.00  0.95  1.50  0.0
5P  2  1  6.00  0.00  1.10  1.60  0.0
6P  3  1  0.00  0.00  1.10  1.60  0.0
5D  3  2  4.00  0.00  1.10  2.00  0.0
5D  3  2  0.00  0.30  1.10  2.00  0.0
</PP_INPUTFILE>
  </PP_INFO>
  <!--
 END OF HUMAN READABLE SECTION 
-->
  <PP_HEADER generated="Generated using &quot;atomic&quot; code by A. Dal Corso  v.6.2.2" author="ADC" date=" 4May2018" comment="" element=" W" pseudo_type="USPP" relativistic="scalar" is_ultrasoft="true" is_paw="false" is_coulomb="false" has_so="false" has_wfc="false" has_gipaw="true" paw_as_gipaw="false" core_correction="true" functional="PBE" z_valence="1.400000000000e1" total_psenergy="-1.570831695662e2" wfc_cutoff="5.039015407863e1" rho_cutoff="4.752212497981e2" l_max="2" l_max_rho="4" l_local="-1" mesh_size="1273" number_of_wfc="5" number_of_proj="6"/>
  <PP_MESH dx="1.250000000000e-2" mesh="1273" xmin="-7.000000000000e0" rmax="1.000000000000e2" zmesh="7.400000000000e1">
    <PP_R>
      1.232272926425022e-5 1.247773011714895e-5 1.263468064076462e-5 1.279360535893586e-5
      1.295452910397324e-5 1.311747702053931e-5 1.328247456957755e-5 1.344954753229069e-5
      1.361872201416906e-5 1.379002444906966e-5 1.396348160334644e-5 1.413912058003268e-5
      1.431696882307581e-5 1.449705412162563e-5 1.467940461437646e-5 1.486404879396376e-5
      1.505101551141626e-5 1.524033398066395e-5 1.543203378310280e-5 1.562614487221700e-5
      1.582269757825912e-5 1.602172261298936e-5 1.622325107447433e-5 1.642731445194614e-5
      1.663394463072271e-5 1.684317389718986e-5 1.705503494384614e-5 1.726956087441114e-5
      1.748678520899795e-5 1.770674188935081e-5 1.792946528414853e-5 1.815499019437469e-5
      1.838335185875532e-5 1.861458595926510e-5 1.884872862670269e-5 1.908581644633624e-5
      1.932588646361992e-5 1.956897618998237e-5 1.981512360868788e-5 2.006436718077145e-5
      2.031674585104828e-5 2.057229905419907e-5 2.083106672093176e-5 2.109308928422071e-5
      2.135840768562455e-5 2.162706338168330e-5 2.189909835039604e-5 2.217455509778008e-5
      2.245347666451262e-5 2.273590663265596e-5 2.302188913246721e-5 2.331146884929382e-5
      2.360469103055567e-5 2.390160149281515e-5 2.420224662893608e-5 2.450667341533264e-5
      2.481492941930956e-5 2.512706280649461e-5 2.544312234836456e-5 2.576315742986590e-5
      2.608721805713120e-5 2.641535486529279e-5 2.674761912639454e-5 2.708406275740323e-5
      2.742473832832073e-5 2.776969907039809e-5 2.811899888445311e-5 2.847269234929235e-5
      2.883083473023929e-5 2.919348198776965e-5 2.956069078625521e-5 2.993251850281780e-5
      3.030902323629463e-5 3.069026381631631e-5 3.107629981249913e-5 3.146719154375288e-5
      3.186300008770585e-5 3.226378729024829e-5 3.266961577519599e-5 3.308054895407544e-5
      3.349665103603188e-5 3.391798703786214e-5 3.434462279417376e-5 3.477662496767162e-5
      3.521406105957430e-5 3.565699942016110e-5 3.610550925945202e-5 3.655966065802198e-5
      3.701952457795092e-5 3.748517287391201e-5 3.795667830439882e-5 3.843411454309415e-5
      3.891755619038166e-5 3.940707878500227e-5 3.990275881585737e-5 4.040467373396027e-5
      4.091290196453803e-5 4.142752291928571e-5 4.194861700877444e-5 4.247626565501594e-5
      4.301055130418469e-5 4.355155743950037e-5 4.409936859427227e-5 4.465407036510786e-5
      4.521574942528746e-5 4.578449353830693e-5 4.636039157159100e-5 4.694353351037911e-5
      4.753401047178551e-5 4.813191471903688e-5 4.873733967588826e-5 4.935037994122085e-5
      4.997113130382341e-5 5.059969075735919e-5 5.123615651552172e-5 5.188062802738058e-5
      5.253320599292067e-5 5.319399237877680e-5 5.386309043416608e-5 5.454060470702106e-5
      5.522664106032521e-5 5.592130668865456e-5 5.662471013492675e-5 5.733696130736135e-5
      5.805817149665325e-5 5.878845339336173e-5 5.952792110551899e-5 6.027669017645948e-5
      6.103487760287386e-5 6.180260185309018e-5 6.257998288558441e-5 6.336714216772448e-5
      6.416420269474969e-5 6.497128900898899e-5 6.578852721932114e-5 6.661604502087908e-5
      6.745397171500294e-5 6.830243822944343e-5 6.916157713881961e-5 7.003152268533412e-5
      7.091241079974843e-5 7.180437912262263e-5 7.270756702582190e-5 7.362211563429357e-5
      7.454816784811856e-5 7.548586836483918e-5 7.643536370206903e-5 7.739680222038627e-5
      7.837033414651541e-5 7.935611159680070e-5 8.035428860097424e-5 8.136502112622377e-5
      8.238846710156269e-5 8.342478644250678e-5 8.447414107606161e-5 8.553669496602359e-5
      8.661261413859977e-5 8.770206670834984e-5 8.880522290445420e-5 8.992225509731316e-5
      9.105333782547930e-5 9.219864782293008e-5 9.335836404668285e-5 9.453266770475690e-5
      9.572174228448818e-5 9.692577358119864e-5 9.814494972722827e-5 9.937946122133022e-5
      1.006295009584370e-4 1.018952642598010e-4 1.031769489035130e-4 1.044747551554064e-4
      1.057888858003483e-4 1.071195461739256e-4 1.084669441945292e-4 1.098312903958407e-4
      1.112127979597301e-4 1.126116827495650e-4 1.140281633439396e-4 1.154624610708290e-4
      1.169148000421707e-4 1.183854071888842e-4 1.198745122963278e-4 1.213823480402043e-4
      1.229091500229165e-4 1.244551568103803e-4 1.260206099693017e-4 1.276057541049218e-4
      1.292108368992365e-4 1.308361091496985e-4 1.324818248084031e-4 1.341482410217704e-4
      1.358356181707241e-4 1.375442199113766e-4 1.392743132162264e-4 1.410261684158717e-4
      1.428000592412521e-4 1.445962628664179e-4 1.464150599518399e-4 1.482567346882633e-4
      1.501215748411122e-4 1.520098717954549e-4 1.539219206015321e-4 1.558580200208598e-4
      1.578184725729115e-4 1.598035845823867e-4 1.618136662270760e-4 1.638490315863256e-4
      1.659099986901140e-4 1.679968895687445e-4 1.701100303031622e-4 1.722497510759063e-4
      1.744163862227010e-4 1.766102742846957e-4 1.788317580613641e-4 1.810811846640652e-4
      1.833589055702829e-4 1.856652766785425e-4 1.880006583640219e-4 1.903654155348613e-4
      1.927599176891791e-4 1.951845389728091e-4 1.976396582377598e-4 2.001256591014108e-4
      2.026429300064556e-4 2.051918642815939e-4 2.077728602029923e-4 2.103863210565147e-4
      2.130326552007364e-4 2.157122761307517e-4 2.184256025427821e-4 2.211730583996004e-4
      2.239550729967737e-4 2.267720810297427e-4 2.296245226617444e-4 2.325128435925863e-4
      2.354374951282908e-4 2.383989342516103e-4 2.413976236934329e-4 2.444340320050853e-4
      2.475086336315430e-4 2.506219089855660e-4 2.537743445227623e-4 2.569664328175981e-4
      2.601986726403639e-4 2.634715690351080e-4 2.667856333985511e-4 2.701413835599923e-4
      2.735393438622214e-4 2.769800452434494e-4 2.804640253202668e-4 2.839918284716490e-4
      2.875640059240158e-4 2.911811158373618e-4 2.948437233924699e-4 2.985524008792222e-4
      3.023077277860216e-4 3.061102908903374e-4 3.099606843503910e-4 3.138595097979943e-4
      3.178073764325556e-4 3.218049011162687e-4 3.258527084704983e-4 3.299514309733789e-4
      3.341017090586406e-4 3.383041912156776e-4 3.425595340908776e-4 3.468684025902221e-4
      3.512314699831804e-4 3.556494180079096e-4 3.601229369777768e-4 3.646527258892229e-4
      3.692394925309807e-4 3.738839535946699e-4 3.785868347867814e-4 3.833488709420689e-4
      3.881708061383707e-4 3.930533938128713e-4 3.979973968798283e-4 4.030035878497800e-4
      4.080727489502500e-4 4.132056722479743e-4 4.184031597726607e-4 4.236660236423092e-4
      4.289950861901075e-4 4.343911800929198e-4 4.398551485013977e-4 4.453878451717213e-4
      4.509901345990012e-4 4.566628921523589e-4 4.624070042117032e-4 4.682233683062301e-4
      4.741128932546626e-4 4.800764993072562e-4 4.861151182895901e-4 4.922296937481653e-4
      4.984211810978380e-4 5.046905477711030e-4 5.110387733692580e-4 5.174668498154684e-4
      5.239757815097569e-4 5.305665854859434e-4 5.372402915705583e-4 5.439979425437548e-4
      5.508405943022463e-4 5.577693160242912e-4 5.647851903367557e-4 5.718893134842745e-4
      5.790827955005431e-4 5.863667603817619e-4 5.937423462622624e-4 6.012107055923450e-4
      6.087730053183488e-4 6.164304270649921e-4 6.241841673200016e-4 6.320354376210674e-4
      6.399854647451477e-4 6.480354909001550e-4 6.561867739190536e-4 6.644405874563998e-4
      6.727982211873506e-4 6.812609810091807e-4 6.898301892453301e-4 6.985071848520191e-4
      7.072933236274645e-4 7.161899784237270e-4 7.251985393612181e-4 7.343204140459121e-4
      7.435570277892873e-4 7.529098238310326e-4 7.623802635645588e-4 7.719698267653419e-4
      7.816800118221417e-4 7.915123359711291e-4 8.014683355329558e-4 8.115495661528099e-4
      8.217576030434861e-4 8.320940412315165e-4 8.425604958063982e-4 8.531586021729511e-4
      8.638900163068591e-4 8.747564150134130e-4 8.857594961895183e-4 8.969009790889951e-4
      9.081826045912129e-4 9.196061354731109e-4 9.311733566846293e-4 9.428860756276169e-4
      9.547461224382381e-4 9.667553502729353e-4 9.789156355979927e-4 9.912288784827314e-4
      1.003697002896404e-3 1.016321957008817e-3 1.029105713494734e-3 1.042050269842118e-3
      1.055157648664232e-3 1.068429898015685e-3 1.081869091712440e-3 1.095477329655854e-3
      1.109256738160795e-3 1.123209470287873e-3 1.137337706179870e-3 1.151643653402390e-3
      1.166129547288790e-3 1.180797651289465e-3 1.195650257325504e-3 1.210689686146821e-3
      1.225918287694764e-3 1.241338441469309e-3 1.256952556900858e-3 1.272763073726712e-3
      1.288772462372292e-3 1.304983224337147e-3 1.321397892585811e-3 1.338019031943599e-3
      1.354849239497348e-3 1.371891145001231e-3 1.389147411287655e-3 1.406620734683333e-3
      1.424313845430599e-3 1.442229508114003e-3 1.460370522092288e-3 1.478739721935797e-3
      1.497339977869378e-3 1.516174196220861e-3 1.535245319875186e-3 1.554556328734222e-3
      1.574110240182392e-3 1.593910109558143e-3 1.613959030631346e-3 1.634260136086712e-3
      1.654816598013269e-3 1.675631628400017e-3 1.696708479637802e-3 1.718050445027508e-3
      1.739660859294652e-3 1.761543099110428e-3 1.783700583619328e-3 1.806136774973386e-3
      1.828855178873145e-3 1.851859345115439e-3 1.875152868148044e-3 1.898739387631327e-3
      1.922622589006941e-3 1.946806204073693e-3 1.971294011570640e-3 1.996089837767525e-3
      2.021197557062637e-3 2.046621092588198e-3 2.072364416823357e-3 2.098431552214906e-3
      2.124826571805779e-3 2.151553599871491e-3 2.178616812564552e-3 2.206020438567005e-3
      2.233768759751170e-3 2.261866111848683e-3 2.290316885127975e-3 2.319125525080255e-3
      2.348296533114123e-3 2.377834467258940e-3 2.407743942877007e-3 2.438029633384741e-3
      2.468696270982902e-3 2.499748647396004e-3 2.531191614621042e-3 2.563030085685613e-3
      2.595269035415598e-3 2.627913501212482e-3 2.660968583840461e-3 2.694439448223448e-3
      2.728331324252101e-3 2.762649507601002e-3 2.797399360556119e-3 2.832586312852673e-3
      2.868215862523556e-3 2.904293576758387e-3 2.940825092773419e-3 2.977816118692351e-3
      3.015272434438241e-3 3.053199892636633e-3 3.091604419530034e-3 3.130492015903904e-3
      3.169868758024295e-3 3.209740798587273e-3 3.250114367680300e-3 3.290995773755687e-3
      3.332391404616306e-3 3.374307728413699e-3 3.416751294658736e-3 3.459728735245001e-3
      3.503246765485021e-3 3.547312185159559e-3 3.591931879580091e-3 3.637112820664647e-3
      3.682862068027198e-3 3.729186770080719e-3 3.776094165154155e-3 3.823591582623420e-3
      3.871686444056622e-3 3.920386264373721e-3 3.969698653020715e-3 4.019631315158659e-3
      4.070192052867599e-3 4.121388766365667e-3 4.173229455243513e-3 4.225722219714242e-3
      4.278875261879100e-3 4.332696887009066e-3 4.387195504842564e-3 4.442379630899516e-3
      4.498257887811888e-3 4.554839006671005e-3 4.612131828391809e-3 4.670145305094250e-3
      4.728888501502101e-3 4.788370596359309e-3 4.848600883864213e-3 4.909588775121778e-3
      4.971343799614086e-3 5.033875606689366e-3 5.097193967069690e-3 5.161308774377691e-3
      5.226230046682452e-3 5.291967928064851e-3 5.358532690202608e-3 5.425934733975226e-3
      5.494184591089181e-3 5.563292925723497e-3 5.633270536196059e-3 5.704128356650886e-3
      5.775877458766578e-3 5.848529053486318e-3 5.922094492769588e-3 5.996585271365944e-3
      6.072013028611103e-3 6.148389550245589e-3 6.225726770256298e-3 6.304036772741197e-3
      6.383331793797496e-3 6.463624223433571e-3 6.544926607504900e-3 6.627251649674410e-3
      6.710612213397431e-3 6.795021323931634e-3 6.880492170372286e-3 6.967038107713029e-3
      7.054672658932652e-3 7.143409517108077e-3 7.233262547553922e-3 7.324245789989017e-3
      7.416373460730088e-3 7.509659954913131e-3 7.604119848742650e-3 7.699767901769230e-3
      7.796619059195766e-3 7.894688454212649e-3 7.993991410362369e-3 8.094543443933860e-3
      8.196360266386938e-3 8.299457786807269e-3 8.403852114392166e-3 8.509559560967707e-3
      8.616596643537482e-3 8.724980086863406e-3 8.834726826079018e-3 8.945854009335598e-3
      9.058379000481619e-3 9.172319381775875e-3 9.287692956634759e-3 9.404517752414081e-3
      9.522812023225862e-3 9.642594252790580e-3 9.763883157325308e-3 9.886697688468132e-3
      1.001105703623943e-2 1.013698063204030e-2 1.026448815168877e-2 1.039359951849420e-2
      1.052433490637034e-2 1.065671474298752e-2 1.079075971296456e-2 1.092649076110071e-2
      1.106392909564841e-2 1.120309619162703e-2 1.134401379417848e-2 1.148670392196484e-2
      1.163118887060890e-2 1.177749121617782e-2 1.192563381871075e-2 1.207563982579075e-2
      1.222753267616162e-2 1.238133610339025e-2 1.253707413957505e-2 1.269477111910102e-2
      1.285445168244209e-2 1.301614078001111e-2 1.317986367605856e-2 1.334564595262003e-2
      1.351351351351351e-2 1.368349258838695e-2 1.385560973681661e-2 1.402989185245710e-2
      1.420636616724358e-2 1.438506025564675e-2 1.456600203898151e-2 1.474921978976962e-2
      1.493474213615741e-2 1.512259806638894e-2 1.531281693333549e-2 1.550542845908206e-2
      1.570046273957140e-2 1.589795024930664e-2 1.609792184611296e-2 1.630040877595920e-2
      1.650544267784014e-2 1.671305558872007e-2 1.692327994853872e-2 1.713614860528001e-2
      1.735169482010461e-2 1.756995227254718e-2 1.779095506577868e-2 1.801473773193518e-2
      1.824133523751357e-2 1.847078298883509e-2 1.870311683757772e-2 1.893837308637803e-2
      1.917658849450349e-2 1.941780028359629e-2 1.966204614348921e-2 1.990936423809481e-2
      2.015979321136853e-2 2.041337219334694e-2 2.067014080626189e-2 2.093013917073153e-2
      2.119340791202931e-2 2.145998816643168e-2 2.172992158764572e-2 2.200325035331772e-2
      2.228001717162335e-2 2.256026528794112e-2 2.284403849160935e-2 2.313138112276845e-2
      2.342233807928914e-2 2.371695482378782e-2 2.401527739073025e-2 2.431735239362445e-2
      2.462322703230419e-2 2.493294910030407e-2 2.524656699232733e-2 2.556412971180770e-2
      2.588568687856617e-2 2.621128873656425e-2 2.654098616175471e-2 2.687483067003097e-2
      2.721287442527672e-2 2.755517024751643e-2 2.790177162116875e-2 2.825273270340347e-2
      2.860810833260371e-2 2.896795403693460e-2 2.933232604301951e-2 2.970128128472572e-2
      3.007487741206039e-2 3.045317280017850e-2 3.083622655850411e-2 3.122409853996628e-2
      3.161684935035125e-2 3.201454035777218e-2 3.241723370225808e-2 3.282499230546336e-2
      3.323787988049933e-2 3.365596094188963e-2 3.407930081565067e-2 3.450796564949901e-2
      3.494202242318711e-2 3.538153895896894e-2 3.582658393219741e-2 3.627722688205503e-2
      3.673353822241953e-2 3.719558925286631e-2 3.766345216980882e-2 3.813720007777972e-2
      3.861690700085360e-2 3.910264789421298e-2 3.959449865586087e-2 4.009253613847930e-2
      4.059683816143827e-2 4.110748352295495e-2 4.162455201240583e-2 4.214812442279453e-2
      4.267828256337525e-2 4.321510927243613e-2 4.375868843024274e-2 4.430910497214424e-2
      4.486644490184528e-2 4.543079530484365e-2 4.600224436203808e-2 4.658088136350644e-2
      4.716679672245732e-2 4.776008198935775e-2 4.836082986623758e-2 4.896913422117487e-2
      4.958509010296279e-2 5.020879375596087e-2 5.084034263513397e-2 5.147983542127923e-2
      5.212737203644559e-2 5.278305365954669e-2 5.344698274216996e-2 5.411926302458553e-2
      5.479999955195507e-2 5.548929869074611e-2 5.618726814535149e-2 5.689401697491839e-2
      5.760965561038949e-2 5.833429587175737e-2 5.906805098553725e-2 5.981103560245860e-2
      6.056336581537925e-2 6.132515917742579e-2 6.209653472036067e-2 6.287761297318201e-2
      6.366851598095601e-2 6.446936732388653e-2 6.528029213662546e-2 6.610141712782442e-2
      6.693287059993396e-2 6.777478246925085e-2 6.862728428621732e-2 6.949050925597691e-2
      7.036459225918716e-2 7.124966987309580e-2 7.214588039288081e-2 7.305336385325901e-2
      7.397226205036764e-2 7.490271856391926e-2 7.584487877963721e-2 7.679888991197227e-2
      7.776490102710447e-2 7.874306306623621e-2 7.973352886917593e-2 8.073645319822058e-2
      8.175199276233718e-2 8.278030624164845e-2 8.382155431222799e-2 8.487589967120496e-2
      8.594350706218689e-2 8.702454330100085e-2 8.811917730175828e-2 8.922758010324912e-2
      9.034992489566584e-2 9.148638704766586e-2 9.263714413377272e-2 9.380237596212210e-2
      9.498226460255811e-2 9.617699441508105e-2 9.738675207865494e-2 9.861172662037617e-2
      9.985210944500878e-2 1.011080943648931e-1 1.023798776302277e-1 1.036676579597355e-1
      1.049716365717132e-1 1.062920172154715e-1 1.076290062031727e-1 1.089828124420659e-1
      1.103536474671304e-1 1.117417254741280e-1 1.131472633530711e-1 1.145704807221133e-1
      1.160115999618635e-1 1.174708462501352e-1 1.189484475971299e-1 1.204446348810640e-1
      1.219596418842450e-1 1.234937053295990e-1 1.250470649176607e-1 1.266199633640261e-1
      1.282126464372774e-1 1.298253629973853e-1 1.314583650345931e-1 1.331119077087916e-1
      1.347862493893882e-1 1.364816516956764e-1 1.381983795377164e-1 1.399367011577256e-1
      1.416968881719942e-1 1.434792156133245e-1 1.452839619740048e-1 1.471114092493263e-1
      1.489618429816433e-1 1.508355523049914e-1 1.527328299902647e-1 1.546539724909611e-1
      1.565992799895054e-1 1.585690564441515e-1 1.605636096364783e-1 1.625832512194803e-1
      1.646282967662632e-1 1.666990658193549e-1 1.687958819406326e-1 1.709190727618814e-1
      1.730689700359870e-1 1.752459096887721e-1 1.774502318714869e-1 1.796822810139566e-1
      1.819424058784015e-1 1.842309596139292e-1 1.865482998117175e-1 1.888947885608871e-1
      1.912707925050785e-1 1.936766828997425e-1 1.961128356701476e-1 1.985796314701208e-1
      2.010774557415250e-1 2.036066987744837e-1 2.061677557683673e-1 2.087610268935409e-1
      2.113869173538942e-1 2.140458374501545e-1 2.167382026439956e-1 2.194644336229575e-1
      2.222249563661765e-1 2.250202022109479e-1 2.278506079201223e-1 2.307166157503495e-1
      2.336186735211847e-1 2.365572346850580e-1 2.395327583981302e-1 2.425457095920359e-1
      2.455965590465279e-1 2.486857834630415e-1 2.518138655391759e-1 2.549812940441201e-1
      2.581885638950225e-1 2.614361762343219e-1 2.647246385080543e-1 2.680544645451397e-1
      2.714261746376712e-1 2.748402956222112e-1 2.782973609621086e-1 2.817979108308572e-1
      2.853424921964949e-1 2.889316589070722e-1 2.925659717771902e-1 2.962459986756281e-1
      2.999723146140765e-1 3.037455018369815e-1 3.075661499125234e-1 3.114348558247379e-1
      3.153522240667935e-1 3.193188667354493e-1 3.233354036266912e-1 3.274024623325808e-1
      3.315206783393159e-1 3.356906951265249e-1 3.399131642678162e-1 3.441887455325824e-1
      3.485181069890954e-1 3.529019251088918e-1 3.573408848724703e-1 3.618356798763264e-1
      3.663870124413231e-1 3.709955937224338e-1 3.756621438198607e-1 3.803873918915493e-1
      3.851720762671259e-1 3.900169445632573e-1 3.949227538004721e-1 3.998902705214457e-1
      4.049202709107706e-1 4.100135409162427e-1 4.151708763716613e-1 4.203930831211846e-1
      4.256809771452428e-1 4.310353846880338e-1 4.364571423866314e-1 4.419470974017051e-1
      4.475061075498961e-1 4.531350414378509e-1 4.588347785979400e-1 4.646062096256924e-1
      4.704502363189466e-1 4.763677718187641e-1 4.823597407521069e-1 4.884270793763099e-1
      4.945707357253789e-1 5.007916697581162e-1 5.070908535081216e-1 5.134692712356729e-1
      5.199279195815154e-1 5.264678077225948e-1 5.330899575297371e-1 5.397954037273234e-1
      5.465851940549653e-1 5.534603894312136e-1 5.604220641193352e-1 5.674713058951623e-1
      5.746092162170646e-1 5.818369103980534e-1 5.891555177800473e-1 5.965661819103419e-1
      6.040700607202819e-1 6.116683267061997e-1 6.193621671126150e-1 6.271527841177429e-1
      6.350413950213426e-1 6.430292324349150e-1 6.511175444743084e-1 6.593075949547361e-1
      6.676006635882458e-1 6.759980461836866e-1 6.845010548491711e-1 6.931110181971041e-1
      7.018292815517770e-1 7.106572071595737e-1 7.195961744018336e-1 7.286475800103725e-1
      7.378128382857330e-1 7.470933813181687e-1 7.564906592114075e-1 7.660061403092415e-1
      7.756413114249492e-1 7.853976780736215e-1 7.952767647073981e-1 8.052801149536620e-1
      8.154092918562441e-1 8.256658781196402e-1 8.360514763563229e-1 8.465677093371475e-1
      8.572162202449100e-1 8.679986729311075e-1 8.789167521759056e-1 8.899721639514013e-1
      9.011666356881786e-1 9.125019165452180e-1 9.239797776832193e-1 9.356020125413330e-1
      9.473704371174033e-1 9.592868902517154e-1 9.713532339143116e-1 9.835713534959423e-1
      9.959431581026465e-1 1.008470580854066e0 1.021155579185496e0 1.034000135153728e0
      1.047006255746770e0 1.060175973197421e0 1.073511345300829e0 1.087014455736018e0
      1.100687414391461e0 1.114532357694772e0 1.128551448946504e0 1.142746878658189e0
      1.157120864894604e0 1.171675653620336e0 1.186413519050742e0 1.201336764007275e0
      1.216447720277322e0 1.231748748978547e0 1.247242240927809e0 1.262930617014753e0
      1.278816328580056e0 1.294901857798471e0 1.311189718066668e0 1.327682454395947e0
      1.344382643809918e0 1.361292895747150e0 1.378415852468915e0 1.395754189472039e0
      1.413310615906949e0 1.431087875001000e0 1.449088744487089e0 1.467316037037697e0
      1.485772600704373e0 1.504461319362734e0 1.523385113163099e0 1.542546938986744e0
      1.561949790907941e0 1.581596700661783e0 1.601490738117883e0 1.621635011760075e0
      1.642032669172094e0 1.662686897529413e0 1.683600924097236e0 1.704778016734759e0
      1.726221484405798e0 1.747934677695797e0 1.769920989335386e0 1.792183854730495e0
      1.814726752499129e0 1.837553205014934e0 1.860666778957550e0 1.884071085869935e0
      1.907769782722662e0 1.931766572485324e0 1.956065204705150e0 1.980669476092854e0
      2.005583231115900e0 2.030810362599202e0 2.056354812333373e0 2.082220571690661e0
      2.108411682248582e0 2.134932236421452e0 2.161786378099820e0 2.188978303297951e0
      2.216512260809486e0 2.244392552871298e0 2.272623535835749e0 2.301209620851367e0
      2.330155274552085e0 2.359465019755195e0 2.389143436168006e0 2.419195161103469e0
      2.449624890204749e0 2.480437378178919e0 2.511637439539923e0 2.543229949360817e0
      2.575219844035540e0 2.607612122050225e0 2.640411844764202e0 2.673624137200888e0
      2.707254188848538e0 2.741307254471147e0 2.775788654929505e0 2.810703778012576e0
      2.846058079279389e0 2.881857082911433e0 2.918106382575866e0 2.954811642299516e0
      2.991978597353881e0 3.029613055151315e0 3.067720896152407e0 3.106308074784849e0
      3.145380620373815e0 3.184944638084035e0 3.225006309873782e0 3.265571895460767e0
      3.306647733300276e0 3.348240241575545e0 3.390355919200603e0 3.433001346835774e0
      3.476183187915878e0 3.519908189691443e0 3.564183184282963e0 3.609015089748407e0
      3.654410911164230e0 3.700377741719872e0 3.746922763826135e0 3.794053250237426e0
      3.841776565188121e0 3.890100165543288e0 3.939031601963785e0 3.988578520086111e0
      4.038748661717034e0 4.089549866043241e0 4.140990070856279e0 4.193077313792790e0
      4.245819733590462e0 4.299225571359703e0 4.353303171871304e0 4.408060984860382e0
      4.463507566346607e0 4.519651579971149e0 4.576501798350373e0 4.634067104446546e0
      4.692356492955879e0 4.751379071713902e0 4.811144063118637e0 4.871660805571591e0
      4.932938754936878e0 4.994987486018774e0 5.057816694057732e0 5.121436196245345e0
      5.185855933258274e0 5.251085970811470e0 5.317136501231032e0 5.384017845046701e0
      5.451740452604528e0 5.520314905699737e0 5.589751919230119e0 5.660062342870329e0
      5.731257162767089e0 5.803347503255864e0 5.876344628599035e0 5.950259944745931e0
      6.025105001115103e0 6.100891492398858e0 6.177631260390661e0 6.255336295835400e0
      6.334018740302932e0 6.413690888085310e0 6.494365188117694e0 6.576054245923611e0
      6.658770825584551e0 6.742527851734351e0 6.827338411578777e0 6.913215756940327e0
      7.000173306328946e0 7.088224647038655e0 7.177383537270556e0 7.267663908282668e0
      7.359079866566614e0 7.451645696051875e0 7.545375860337648e0 7.640285004952771e0
      7.736387959644214e0 7.833699740694141e0 7.932235553266335e0 8.032010793782003e0
      8.133041052325435e0 8.235342115080110e0 8.338929966795186e0 8.443820793283257e0
      8.550030983949380e0 8.657577134351904e0 8.766476048795662e0 8.876744742957563e0
      8.988400446545430e0 9.101460605990127e0 9.215942887171561e0 9.331865178179113e0
      9.449245592106564e0 9.568102469882424e0 9.688454383135676e0 9.810320137097587e0
      9.933718773540187e0 1.005866957375145e1 1.018519206154813e1 1.031330600632637e1
      1.044303142615068e1 1.057438859088184e1 1.070739802534408e1 1.084208051253215e1
      1.097845709685870e1 1.111654908744246e1 1.125637806143795e1 1.139796586740681e1
      1.154133462873178e1 1.168650674707354e1 1.183350490587089e1 1.198235207388526e1
      1.213307150878944e1 1.228568676080179e1 1.244022167636596e1 1.259670040187687e1
      1.275514738745378e1 1.291558739076051e1 1.307804548087401e1 1.324254704220141e1
      1.340911777844630e1 1.357778371662516e1 1.374857121113394e1 1.392150694786613e1
      1.409661794838249e1 1.427393157413304e1 1.445347553073262e1 1.463527787228968e1
      1.481936700578999e1 1.500577169553520e1 1.519452106763731e1 1.538564461456974e1
      1.557917219977552e1 1.577513406233358e1 1.597356082168368e1 1.617448348241059e1
      1.637793343908890e1 1.658394248118820e1 1.679254279804048e1 1.700376698386968e1
      1.721764804288451e1 1.743421939443565e1 1.765351487823733e1 1.787556875965510e1
      1.810041573505972e1 1.832809093724849e1 1.855862994093503e1 1.879206876830764e1
      1.902844389465805e1 1.926779225408071e1 1.951015124524366e1 1.975555873723242e1
      2.000405307546684e1 2.025567308769287e1 2.051045809004937e1 2.076844789321125e1
      2.102968280861022e1 2.129420365473322e1 2.156205176350066e1 2.183326898672453e1
      2.210789770264766e1 2.238598082256575e1 2.266756179753194e1 2.295268462514652e1
      2.324139385643141e1 2.353373460279131e1 2.382975254306270e1 2.412949393065090e1
      2.443300560075761e1 2.474033497769882e1 2.505153008231485e1 2.536663953947401e1
      2.568571258567001e1 2.600879907671550e1 2.633594949553209e1 2.666721496003822e1
      2.700264723113677e1 2.734229872080244e1 2.768622250027160e1 2.803447230833450e1
      2.838710255973213e1 2.874416835365877e1 2.910572548237108e1 2.947183043990607e1
      2.984254043090827e1 3.021791337956784e1 3.059800793867185e1 3.098288349876836e1
      3.137260019744671e1 3.176721892873402e1 3.216680135260981e1 3.257140990464086e1
      3.298110780573650e1 3.339595907202737e1 3.381602852486792e1 3.424138180096465e1
      3.467208536263248e1 3.510820650817907e1 3.554981338242075e1 3.599697498733017e1
      3.644976119281770e1 3.690824274764930e1 3.737249129050054e1 3.784257936115086e1
      3.831858041181775e1 3.880056881863367e1 3.928861989326795e1 3.978280989469379e1
      4.028321604110444e1 4.078991652197842e1 4.130299051029662e1 4.182251817491371e1
      4.234858069308413e1 4.288126026314671e1 4.342064011736808e1 4.396680453494768e1
      4.451983885518710e1 4.507982949082391e1 4.564686394153425e1 4.622103080760483e1
      4.680241980377642e1 4.739112177326270e1 4.798722870194395e1 4.859083373274066e1
      4.920203118016701e1 4.982091654506749e1 5.044758652953966e1 5.108213905204340e1
      5.172467326270144e1 5.237528955879153e1 5.303408960043345e1 5.370117632647421e1
      5.437665397057179e1 5.506062807748243e1 5.575320551955200e1 5.645449451341467e1