Cm    ONCVPSP-4.0.1  r_core=   1.15013   1.20650   1.10296   1.15013
96.0000     36.0000      230612    zatom,zion,pspd
8      11   3     4   600     0    pspcod,pspxc,lmax,lloc,mmax,r2well
5.99000000  5.00000000  0.00000000    rchrg fchrg qchrg
3     3     3     2    nproj
3     1           extension_switch
4     4     3    nprojso
0                         3.1894664635642E+01  3.5499483506481E+00 -3.7445066859325E-01
1  0.0000000000000E+00 -3.6051685858851E-08  1.2377110503170E-07  1.2722899037088E-07
2  1.0000000000000E-02  1.5183870851729E-01 -6.2053450957119E-02  1.1529376328183E-02
3  2.0000000000000E-02  3.0271394498874E-01 -1.2286096200970E-01  2.3501288461912E-02
4  3.0000000000000E-02  4.5167333626406E-01 -1.8120406769874E-01  3.6335819902949E-02
5  4.0000000000000E-02  5.9778643335343E-01 -2.3591835588254E-01  5.0409060429862E-02
6  5.0000000000000E-02  7.4015499941264E-01 -2.8591828971407E-01  6.6033351367725E-02
7  6.0000000000000E-02  8.7792251636474E-01 -3.3021947855195E-01  8.3440124533108E-02
8  7.0000000000000E-02  1.0102826944474E+00 -3.6795770102211E-01  1.0276604190783E-01
9  8.0000000000000E-02  1.1364868050268E+00 -3.9840410721831E-01  1.2404301586600E-01
10  9.0000000000000E-02  1.2558496993180E+00 -4.2097617228697E-01  1.4719254010758E-01
11  1.0000000000000E-01  1.3677544225186E+00 -4.3524413463363E-01  1.7202459505538E-01
12  1.1000000000000E-01  1.4716553824351E+00 -4.4093282234729E-01  1.9824121469775E-01
13  1.2000000000000E-01  1.5670800819998E+00 -4.3791894442377E-01  2.2544462145809E-01
14  1.3000000000000E-01  1.6536294741412E+00 -4.2622409213960E-01  2.5314965852684E-01
15  1.4000000000000E-01  1.7309770433457E+00 -4.0600385381666E-01  2.8080008196287E-01
16  1.5000000000000E-01  1.7988667591336E+00 -3.7753358699014E-01  3.0778812413390E-01
17  1.6000000000000E-01  1.8571100809436E+00 -3.4119151009962E-01  3.3347661147372E-01
18  1.7000000000000E-01  1.9055822202687E+00 -2.9743986662544E-01  3.5722281798620E-01
19  1.8000000000000E-01  1.9442178832751E+00 -2.4680497454100E-01  3.7840316529485E-01
20  1.9000000000000E-01  1.9730067249332E+00 -1.8985700072366E-01  3.9643784301774E-01
21  2.0000000000000E-01  1.9919887436327E+00 -1.2719029259246E-01  4.1081442123456E-01
22  2.1000000000000E-01  2.0012498334833E+00 -5.9405058081771E-02  4.2110955989742E-01
23  2.2000000000000E-01  2.0009176905691E+00  1.2908888123312E-02  4.2700798693429E-01
24  2.3000000000000E-01  1.9911582402353E+00  8.9185696363009E-02  4.2831801497197E-01
25  2.4000000000000E-01  1.9721727163077E+00  1.6889388306108E-01  4.2498299230244E-01
26  2.5000000000000E-01  1.9441954815158E+00  2.5154321895668E-01  4.1708823217276E-01
27  2.6000000000000E-01  1.9074926330917E+00  3.3668792261923E-01  4.0486313002523E-01
28  2.7000000000000E-01  1.8623613904738E+00  4.2392614464628E-01  3.8867835469203E-01
29  2.8000000000000E-01  1.8091302152687E+00  5.1289589542871E-01  3.6903818004962E-01
30  2.9000000000000E-01  1.7481595691247E+00  6.0326773019809E-01  3.4656820145603E-01
31  3.0000000000000E-01  1.6798431748593E+00  6.9473465261044E-01  3.2199884970585E-01
32  3.1000000000000E-01  1.6046096118342E+00  7.8699982628341E-01  2.9614526792094E-01
33  3.2000000000000E-01  1.5229240496893E+00  8.7976278715610E-01  2.6988424803613E-01
34  3.3000000000000E-01  1.4352899063743E+00  9.7270492393681E-01  2.4412902846201E-01
35  3.4000000000000E-01  1.3422502078136E+00  1.0654750360577E+00  2.1980282925562E-01
36  3.5000000000000E-01  1.2443884280000E+00  1.1576757865842E+00  1.9781204302834E-01
37  3.6000000000000E-01  1.1423285999140E+00  1.2488518408963E+00  1.7902000742891E-01
38  3.7000000000000E-01  1.0367345090637E+00  1.3384804215733E+00  1.6422225827778E-01
39  3.8000000000000E-01  9.2830781189690E-01  1.4259649179998E+00  1.5412410248617E-01
40  3.9000000000000E-01  8.1778495973350E-01  1.5106320693147E+00  1.4932125926063E-01
41  4.0000000000000E-01  7.0593285374190E-01  1.5917330961196E+00  1.5028420039498E-01
42  4.1000000000000E-01  5.9354320611577E-01  1.6684489954851E+00  1.5734668034654E-01
43  4.2000000000000E-01  4.8142563504663E-01  1.7399000416166E+00  1.7069878975883E-01
44  4.3000000000000E-01  3.7039957426623E-01  1.8051593579265E+00  1.9038469821825E-01
45  4.4000000000000E-01  2.6128512971880E-01  1.8632702522831E+00  2.1630507980399E-01
46  4.5000000000000E-01  1.5489306423411E-01  1.9132668428523E+00  2.4822404496142E-01
47  4.6000000000000E-01  5.2014133926941E-02  1.9541973538774E+00  2.8578024088900E-01
48  4.7000000000000E-01 -4.6591964319901E-02  1.9851493349706E+00  3.2850163599777E-01
49  4.8000000000000E-01 -1.4020774803470E-01  2.0052759591890E+00  3.7582337755325E-01
50  4.9000000000000E-01 -2.2816890374940E-01  2.0138224884128E+00  4.2710800992106E-01
51  5.0000000000000E-01 -3.0987473146548E-01  2.0101519622231E+00  4.8166726753890E-01
52  5.1000000000000E-01 -3.8479777424211E-01  1.9937691700490E+00  5.3878461427767E-01
53  5.2000000000000E-01 -4.5249234398099E-01  1.9643420059499E+00  5.9773769048451E-01
54  5.3000000000000E-01 -5.1260168086693E-01  1.9217193796513E+00  6.5781985069862E-01
55  5.4000000000000E-01 -5.6486351998186E-01  1.8659449636836E+00  7.1836002752886E-01
56  5.5000000000000E-01 -6.0911388307553E-01  1.7972661907105E+00  7.7874023801359E-01
57  5.6000000000000E-01 -6.4528896476093E-01  1.7161380723121E+00  8.3841015442072E-01
58  5.7000000000000E-01 -6.7342503864819E-01  1.6232215846569E+00  8.9689828741711E-01
59  5.8000000000000E-01 -6.9365636808689E-01  1.5193765510085E+00  9.5381947063088E-01
60  5.9000000000000E-01 -7.0621116609899E-01  1.4056491388750E+00  1.0088784861227E+00
61  6.0000000000000E-01 -7.1140570756161E-01  1.2832542736520E+00  1.0618698241360E+00
62  6.1000000000000E-01 -7.0963675161967E-01  1.1535534438978E+00  1.1126737216418E+00
63  6.2000000000000E-01 -7.0137248169169E-01  1.0180285293632E+00  1.1612487667553E+00
64  6.3000000000000E-01 -6.8714221251418E-01  8.7825241577472E-01  1.2076214846113E+00
65  6.4000000000000E-01 -6.6752514698742E-01  7.3585726525563E-01  1.2518734299474E+00
66  6.5000000000000E-01 -6.4313848900734E-01  5.9250138438458E-01  1.2941263984581E+00
67  6.6000000000000E-01 -6.1462523126547E-01  4.4983567076534E-01  1.3345264299418E+00
68  6.7000000000000E-01 -5.8264193884462E-01  3.0947062244931E-01  1.3732273094238E+00
69  6.8000000000000E-01 -5.4784684044002E-01  1.7294486288753E-01  1.4103742770296E+00
70  6.9000000000000E-01 -5.1088851970814E-01  4.1696068902178E-02  1.4460886337490E+00
71  7.0000000000000E-01 -4.7239547050026E-01 -8.2964906616362E-02  1.4804538798860E+00
72  7.1000000000000E-01 -4.3296674283433E-01 -1.9987604787985E-01  1.5135039484643E+00
73  7.2000000000000E-01 -3.9316386294769E-01 -3.0804179959393E-01  1.5452140006046E+00
74  7.3000000000000E-01 -3.5350416244924E-01 -4.0664593427497E-01  1.5754941381744E+00
75  7.4000000000000E-01 -3.1445560037680E-01 -4.9505946581675E-01  1.6041862656037E+00
76  7.5000000000000E-01 -2.7643310989113E-01 -5.7284358284954E-01  1.6310642028863E+00
77  7.6000000000000E-01 -2.3979645039935E-01 -6.3974774265379E-01  1.6558370207803E+00
78  7.7000000000000E-01 -2.0484949800798E-01 -6.9570322328660E-01  1.6781554423375E+00
79  7.8000000000000E-01 -1.7184086411625E-01 -7.4081257231624E-01  1.6976210371580E+00
80  7.9000000000000E-01 -1.4096569517759E-01 -7.7533551012326E-01  1.7137978306647E+00
81  8.0000000000000E-01 -1.1236847740282E-01 -7.9967194002421E-01  1.7262258640791E+00
82  8.1000000000000E-01 -8.6146649333384E-02 -8.1434278352516E-01  1.7344361747103E+00
83  8.2000000000000E-01 -6.2354813290215E-02 -8.1996939505660E-01  1.7379666227562E+00
84  8.3000000000000E-01 -4.1009333832526E-02 -8.1725231607259E-01  1.7363779712341E+00
85  8.4000000000000E-01 -2.2093117297843E-02 -8.0695010416027E-01  1.7292696300405E+00
86  8.5000000000000E-01 -5.5603806268579E-03 -7.8985892076207E-01  1.7162945026570E+00
87  8.6000000000000E-01  8.6587609225266E-03 -7.6679348428350E-01  1.6971724229191E+00
88  8.7000000000000E-01  2.0654030117270E-02 -7.3856989774365E-01  1.6717017369463E+00
89  8.8000000000000E-01  3.0531159018107E-02 -7.0599074642823E-01  1.6397686685376E+00
90  8.9000000000000E-01  3.8408570936566E-02 -6.6983273649670E-01  1.6013542012457E+00
91  9.0000000000000E-01  4.4414612357127E-02 -6.3083701570704E-01  1.5565383127926E+00
92  9.1000000000000E-01  4.8685337916203E-02 -5.8970218795848E-01  1.5055015031505E+00
93  9.2000000000000E-01  5.1362817236107E-02 -5.4707990957791E-01  1.4485236621855E+00
94  9.3000000000000E-01  5.2593901484789E-02 -5.0357284219548E-01  1.3859804221305E+00
95  9.4000000000000E-01  5.2529361216235E-02 -4.5973463893236E-01  1.3183372306497E+00
96  9.5000000000000E-01  5.1323286369932E-02 -4.1607156104198E-01  1.2461414586500E+00
97  9.6000000000000E-01  4.9132624977393E-02 -3.7304526363227E-01  1.1700129207867E+00
98  9.7000000000000E-01  4.6116729550186E-02 -3.3107625322267E-01  1.0906332340052E+00
99  9.8000000000000E-01  4.2436779376865E-02 -2.9054750711002E-01  1.0087344694462E+00
100  9.9000000000000E-01  3.8254952794790E-02 -2.5180775425473E-01  9.2508756544678E-01
101  1.0000000000000E+00  3.3733235377156E-02 -2.1517394806561E-01  8.4049096475140E-01
102  1.0100000000000E+00  2.9031767065681E-02 -1.8093251055674E-01  7.5575991872801E-01
103  1.0200000000000E+00  2.4306652531192E-02 -1.4933899158837E-01  6.7171686732975E-01
104  1.0300000000000E+00  1.9707183280630E-02 -1.2061586256628E-01  5.8918325811767E-01
105  1.0400000000000E+00  1.5372445882329E-02 -9.4948246696479E-02  5.0897311378202E-01
106  1.0500000000000E+00  1.1427316810764E-02 -7.2477473343611E-02  4.3188859828425E-01
107  1.0600000000000E+00  7.9778695182302E-03 -5.3292428016255E-02  3.5871776997819E-01
108  1.0700000000000E+00  5.1062420896934E-03 -3.7418747613008E-02  2.9023464909066E-01
109  1.0800000000000E+00  2.8649197535221E-03 -2.4805638449989E-02  2.2720170239478E-01
110  1.0900000000000E+00  1.2713454623143E-03 -1.5312990325737E-02  1.7037452515583E-01
111  1.1000000000000E+00  2.5103306728173E-04 -8.5416708989683E-03  1.2052206097115E-01
112  1.1100000000000E+00 -3.3639738773967E-04 -3.9110441961111E-03  7.8421783180211E-02
113  1.1200000000000E+00 -5.1972465367925E-04 -1.2082311177517E-03  4.4779629468385E-02
114  1.1300000000000E+00 -4.0047357891512E-04 -4.5938706923033E-05  2.0199154174152E-02
115  1.1400000000000E+00 -1.4767456431294E-04  1.2262282723829E-04  5.1225192467945E-03
116  1.1500000000000E+00 -4.6006392280843E-07  5.3231274024318E-07  1.2777276195252E-05
117  1.1600000000000E+00 -1.3020821210967E-06  1.6539405991265E-06  3.5475590319503E-05
118  1.1700000000000E+00  7.8522356280452E-08 -8.2414722341807E-08 -2.4346131780569E-06
119  1.18  0.  0.  0.
120  1.19  0.  0.  0.
121  1.20  0.  0.  0.
122  1.21  0.  0.  0.
123  1.22  0.  0.  0.
124  1.23  0.  0.  0.
125  1.24  0.  0.  0.
126  1.25  0.  0.  0.
127  1.26  0.  0.  0.
128  1.27  0.  0.  0.
129  1.28  0.  0.  0.
130  1.29  0.  0.  0.
131  1.30  0.  0.  0.
132  1.31  0.  0.  0.
133  1.32  0.  0.  0.
134  1.33  0.  0.  0.
135  1.34  0.  0.  0.
136  1.35  0.  0.  0.
137  1.36  0.  0.  0.
138  1.37  0.  0.  0.
139  1.38  0.  0.  0.
140  1.39  0.  0.  0.
141  1.40  0.  0.  0.
142  1.41  0.  0.  0.
143  1.42  0.  0.  0.
144  1.43  0.  0.  0.
145  1.44  0.  0.  0.
146  1.45  0.  0.  0.
147  1.46  0.  0.  0.
148  1.47  0.  0.  0.
149  1.48  0.  0.  0.
150  1.49  0.  0.  0.
151  1.50  0.  0.  0.
152  1.51  0.  0.  0.
153  1.52  0.  0.  0.
154  1.53  0.  0.  0.
155  1.54  0.  0.  0.
156  1.55  0.  0.  0.
157  1.56  0.  0.  0.
158  1.57  0.  0.  0.
159  1.58  0.  0.  0.
160  1.59  0.  0.  0.
161  1.60  0.  0.  0.
162  1.61  0.  0.  0.
163  1.62  0.  0.  0.
164  1.63  0.  0.  0.
165  1.64  0.  0.  0.
166  1.65  0.  0.  0.
167  1.66  0.  0.  0.
168  1.67  0.  0.  0.
169  1.68  0.  0.  0.
170  1.69  0.  0.  0.
171  1.70  0.  0.  0.
172  1.71  0.  0.  0.
173  1.72  0.  0.  0.
174  1.73  0.  0.  0.
175  1.74  0.  0.  0.
176  1.75  0.  0.  0.
177  1.76  0.  0.  0.
178  1.77  0.  0.  0.
179  1.78  0.  0.  0.
180  1.79  0.  0.  0.
181  1.80  0.  0.  0.
182  1.81  0.  0.  0.
183  1.82  0.  0.  0.
184  1.83  0.  0.  0.
185  1.84  0.  0.  0.
186  1.85  0.  0.  0.
187  1.86  0.  0.  0.
188  1.87  0.  0.  0.
189  1.88  0.  0.  0.
190  1.89  0.  0.  0.
191  1.90  0.  0.  0.
192  1.91  0.  0.  0.
193  1.92  0.  0.  0.
194  1.93  0.  0.  0.
195  1.94  0.  0.  0.
196  1.95  0.  0.  0.
197  1.96  0.  0.  0.
198  1.97  0.  0.  0.
199  1.98  0.  0.  0.
200  1.99  0.  0.  0.
201  2.00  0.  0.  0.
202  2.01  0.  0.  0.
203  2.02  0.  0.  0.
204  2.03  0.  0.  0.
205  2.04  0.  0.  0.
206  2.05  0.  0.  0.
207  2.06  0.  0.  0.
208  2.07  0.  0.  0.
209  2.08  0.  0.  0.
210  2.09  0.  0.  0.
211  2.10  0.  0.  0.
212  2.11  0.  0.  0.
213  2.12  0.  0.  0.
214  2.13  0.  0.  0.
215  2.14  0.  0.  0.
216  2.15  0.  0.  0.
217  2.16  0.  0.  0.
218  2.17  0.  0.  0.
219  2.18  0.  0.  0.
220  2.19  0.  0.  0.
221  2.20  0.  0.  0.
222  2.21  0.  0.  0.
223  2.22  0.  0.  0.
224  2.23  0.  0.  0.
225  2.24  0.  0.  0.
226  2.25  0.  0.  0.
227  2.26  0.  0.  0.
228  2.27  0.  0.  0.
229  2.28  0.  0.  0.
230  2.29  0.  0.  0.
231  2.30  0.  0.  0.
232  2.31  0.  0.  0.
233  2.32  0.  0.  0.
234  2.33  0.  0.  0.
235  2.34  0.  0.  0.
236  2.35  0.  0.  0.
237  2.36  0.  0.  0.
238  2.37  0.  0.  0.
239  2.38  0.  0.  0.
240  2.39  0.  0.  0.
241  2.40  0.  0.  0.
242  2.41  0.  0.  0.
243  2.42  0.  0.  0.
244  2.43  0.  0.  0.
245  2.44  0.  0.  0.
246  2.45  0.  0.  0.
247  2.46  0.  0.  0.
248  2.47  0.  0.  0.
249  2.48  0.  0.  0.
250  2.49  0.  0.  0.
251  2.50  0.  0.  0.
252  2.51  0.  0.  0.
253  2.52  0.  0.  0.
254  2.53  0.  0.  0.
255  2.54  0.  0.  0.
256  2.55  0.  0.  0.
257  2.56  0.  0.  0.
258  2.57  0.  0.  0.
259  2.58  0.  0.  0.
260  2.59  0.  0.  0.
261  2.60  0.  0.  0.
262  2.61  0.  0.  0.
263  2.62  0.  0.  0.
264  2.63  0.  0.  0.
265  2.64  0.  0.  0.
266  2.65  0.  0.  0.
267  2.66  0.  0.  0.
268  2.67  0.  0.  0.
269  2.68  0.  0.  0.
270  2.69  0.  0.  0.
271  2.70  0.  0.  0.
272  2.71  0.  0.  0.
273  2.72  0.  0.  0.
274  2.73  0.  0.  0.
275  2.74  0.  0.  0.
276  2.75  0.  0.  0.
277  2.76  0.  0.  0.
278  2.77  0.  0.  0.
279  2.78  0.  0.  0.
280  2.79  0.  0.  0.
281  2.80  0.  0.  0.
282  2.81  0.  0.  0.
283  2.82  0.  0.  0.
284  2.83  0.  0.  0.
285  2.84  0.  0.  0.
286  2.85  0.  0.  0.
287  2.86  0.  0.  0.
288  2.87  0.  0.  0.
289  2.88  0.  0.  0.
290  2.89  0.  0.  0.
291  2.90  0.  0.  0.
292  2.91  0.  0.  0.
293  2.92  0.  0.  0.
294  2.93  0.  0.  0.
295  2.94  0.  0.  0.
296  2.95  0.  0.  0.
297  2.96  0.  0.  0.
298  2.97  0.  0.  0.
299  2.98  0.  0.  0.
300  2.99  0.  0.  0.
301  3.00  0.  0.  0.
302  3.01  0.  0.  0.
303  3.02  0.  0.  0.
304  3.03  0.  0.  0.
305  3.04  0.  0.  0.
306  3.05  0.  0.  0.
307  3.06  0.  0.  0.
308  3.07  0.  0.  0.
309  3.08  0.  0.  0.
310  3.09  0.  0.  0.
311  3.10  0.  0.  0.
312  3.11  0.  0.  0.
313  3.12  0.  0.  0.
314  3.13  0.  0.  0.
315  3.14  0.  0.  0.
316  3.15  0.  0.  0.
317  3.16  0.  0.  0.
318  3.17  0.  0.  0.
319  3.18  0.  0.  0.
320  3.19  0.  0.  0.
321  3.20  0.  0.  0.
322  3.21  0.  0.  0.
323  3.22  0.  0.  0.
324  3.23  0.  0.  0.
325  3.24  0.  0.  0.
326  3.25  0.  0.  0.
327  3.26  0.  0.  0.
328  3.27  0.  0.  0.
329  3.28  0.  0.  0.
330  3.29  0.  0.  0.
331  3.30  0.  0.  0.
332  3.31  0.  0.  0.
333  3.32  0.  0.  0.
334  3.33  0.  0.  0.
335  3.34  0.  0.  0.
336  3.35  0.  0.  0.
337  3.36  0.  0.  0.
338  3.37  0.  0.  0.
339  3.38  0.  0.  0.
340  3.39  0.  0.  0.
341  3.40  0.  0.  0.
342  3.41  0.  0.  0.
343  3.42  0.  0.  0.
344  3.43  0.  0.  0.
345  3.44  0.  0.  0.
346  3.45  0.  0.  0.
347  3.46  0.  0.  0.
348  3.47  0.  0.  0.
349  3.48  0.  0.  0.
350  3.49  0.  0.  0.
351  3.50  0.  0.  0.
352  3.51  0.  0.  0.
353  3.52  0.  0.  0.
354  3.53  0.  0.  0.
355  3.54  0.  0.  0.
356  3.55  0.  0.  0.
357  3.56  0.  0.  0.
358  3.57  0.  0.  0.
359  3.58  0.  0.  0.
360  3.59  0.  0.  0.
361  3.60  0.  0.  0.
362  3.61  0.  0.  0.
363  3.62  0.  0.  0.
364  3.63  0.  0.  0.
365  3.64  0.  0.  0.
366  3.65  0.  0.  0.
367  3.66  0.  0.  0.
368  3.67  0.  0.  0.
369  3.68  0.  0.  0.
370  3.69  0.  0.  0.
371  3.70  0.  0.  0.
372  3.71  0.  0.  0.
373  3.72  0.  0.  0.
374  3.73  0.  0.  0.
375  3.74  0.  0.  0.
376  3.75  0.  0.  0.
377  3.76  0.  0.  0.
378  3.77  0.  0.  0.
379  3.78  0.  0.  0.
380  3.79  0.  0.  0.
381  3.80  0.  0.  0.
382  3.81  0.  0.  0.
383  3.82  0.  0.  0.
384  3.83  0.  0.  0.
385  3.84  0.  0.  0.
386  3.85  0.  0.  0.
387  3.86  0.  0.  0.
388  3.87  0.  0.  0.
389  3.88  0.  0.  0.
390  3.89  0.  0.  0.
391  3.90  0.  0.  0.
392  3.91  0.  0.  0.
393  3.92  0.  0.  0.
394  3.93  0.  0.  0.
395  3.94  0.  0.  0.
396  3.95  0.  0.  0.
397  3.96  0.  0.  0.
398  3.97  0.  0.  0.
399  3.98  0.  0.  0.
400  3.99  0.  0.  0.
401  4.00  0.  0.  0.
402  4.01  0.  0.  0.
403  4.02  0.  0.  0.
404  4.03  0.  0.  0.
405  4.04  0.  0.  0.
406  4.05  0.  0.  0.
407  4.06  0.  0.  0.
408  4.07  0.  0.  0.
409  4.08  0.  0.  0.
410  4.09  0.  0.  0.
411  4.10  0.  0.  0.
412  4.11  0.  0.  0.
413  4.12  0.  0.  0.
414  4.13  0.  0.  0.
415  4.14  0.  0.  0.
416  4.15  0.  0.  0.
417  4.16  0.  0.  0.
418  4.17  0.  0.  0.
419  4.18  0.  0.  0.
420  4.19  0.  0.  0.
421  4.20  0.  0.  0.
422  4.21  0.  0.  0.
423  4.22  0.  0.  0.
424  4.23  0.  0.  0.
425  4.24  0.  0.  0.
426  4.25  0.  0.  0.
427  4.26  0.  0.  0.
428  4.27  0.  0.  0.
429  4.28  0.  0.  0.
430  4.29  0.  0.  0.
431  4.30  0.  0.  0.
432  4.31  0.  0.  0.
433  4.32  0.  0.  0.
434  4.33  0.  0.  0.
435  4.34  0.  0.  0.
436  4.35  0.  0.  0.
437  4.36  0.  0.  0.
438  4.37  0.  0.  0.
439  4.38  0.  0.  0.
440  4.39  0.  0.  0.
441  4.40  0.  0.  0.
442  4.41  0.  0.  0.
443  4.42  0.  0.  0.
444  4.43  0.  0.  0.
445  4.44  0.  0.  0.
446  4.45  0.  0.  0.
447  4.46  0.  0.  0.
448  4.47  0.  0.  0.
449  4.48  0.  0.  0.
450  4.49  0.  0.  0.
451  4.50  0.  0.  0.
452  4.51  0.  0.  0.
453  4.52  0.  0.  0.
454  4.53  0.  0.  0.
455  4.54  0.  0.  0.
456  4.55  0.  0.  0.
457  4.56  0.  0.  0.
458  4.57  0.  0.  0.
459  4.58  0.  0.  0.
460  4.59  0.  0.  0.
461  4.60  0.  0.  0.
462  4.61  0.  0.  0.
463  4.62  0.  0.  0.
464  4.63  0.  0.  0.
465  4.64  0.  0.  0.
466  4.65  0.  0.  0.
467  4.66  0.  0.  0.
468  4.67  0.  0.  0.
469  4.68  0.  0.  0.
470  4.69  0.  0.  0.
471  4.70  0.  0.  0.
472  4.71  0.  0.  0.
473  4.72  0.  0.  0.
474  4.73  0.  0.  0.
475  4.74  0.  0.  0.
476  4.75  0.  0.  0.
477  4.76  0.  0.  0.
478  4.77  0.  0.  0.
479  4.78  0.  0.  0.
480  4.79  0.  0.  0.
481  4.80  0.  0.  0.
482  4.81  0.  0.  0.
483  4.82  0.  0.  0.
484  4.83  0.  0.  0.
485  4.84  0.  0.  0.
486  4.85  0.  0.  0.
487  4.86  0.  0.  0.
488  4.87  0.  0.  0.
489  4.88  0.  0.  0.
490  4.89  0.  0.  0.
491  4.90  0.  0.  0.
492  4.91  0.  0.  0.
493  4.92  0.  0.  0.
494  4.93  0.  0.  0.
495  4.94  0.  0.  0.
496  4.95  0.  0.  0.
497  4.96  0.  0.  0.
498  4.97  0.  0.  0.
499  4.98  0.  0.  0.
500  4.99  0.  0.  0.
501  5.00  0.  0.  0.
502  5.01  0.  0.  0.
503  5.02  0.  0.  0.
504  5.03  0.  0.  0.
505  5.04  0.  0.  0.
506  5.05  0.  0.  0.
507  5.06  0.  0.  0.
508  5.07  0.  0.  0.
509  5.08  0.  0.  0.
510  5.09  0.  0.  0.
511  5.10  0.  0.  0.
512  5.11  0.  0.  0.
513  5.12  0.  0.  0.
514  5.13  0.  0.  0.
515  5.14  0.  0.  0.
516  5.15  0.  0.  0.
517  5.16  0.  0.  0.
518  5.17  0.  0.  0.
519  5.18  0.  0.  0.
520  5.19  0.  0.  0.
521  5.20  0.  0.  0.
522  5.21  0.  0.  0.
523  5.22  0.  0.  0.
524  5.23  0.  0.  0.
525  5.24  0.  0.  0.
526  5.25  0.  0.  0.
527  5.26  0.  0.  0.
528  5.27  0.  0.  0.
529  5.28  0.  0.  0.
530  5.29  0.  0.  0.
531  5.30  0.  0.  0.
532  5.31  0.  0.  0.
533  5.32  0.  0.  0.
534  5.33  0.  0.  0.
535  5.34  0.  0.  0.
536  5.35  0.  0.  0.
537  5.36  0.  0.  0.
538  5.37  0.  0.  0.
539  5.38  0.  0.  0.
540  5.39  0.  0.  0.
541  5.40  0.  0.  0.
542  5.41  0.  0.  0.
543  5.42  0.  0.  0.
544  5.43  0.  0.  0.
545  5.44  0.  0.  0.
546  5.45  0.  0.  0.
547  5.46  0.  0.  0.
548  5.47  0.  0.  0.
549  5.48  0.  0.  0.
550  5.49  0.  0.  0.
551  5.50  0.  0.  0.
552  5.51  0.  0.  0.
553  5.52  0.  0.  0.
554  5.53  0.  0.  0.
555  5.54  0.  0.  0.
556  5.55  0.  0.  0.
557  5.56  0.  0.  0.
558  5.57  0.  0.  0.
559  5.58  0.  0.  0.
560  5.59  0.  0.  0.
561  5.60  0.  0.  0.
562  5.61  0.  0.  0.
563  5.62  0.  0.  0.
564  5.63  0.  0.  0.
565  5.64  0.  0.  0.
566  5.65  0.  0.  0.
567  5.66  0.  0.  0.
568  5.67  0.  0.  0.
569  5.68  0.  0.  0.
570  5.69  0.  0.  0.
571  5.70  0.  0.  0.
572  5.71  0.  0.  0.
573  5.72  0.  0.  0.
574  5.73  0.  0.  0.
575  5.74  0.  0.  0.
576  5.75  0.  0.  0.
577  5.76  0.  0.  0.
578  5.77  0.  0.  0.
579  5.78  0.  0.  0.
580  5.79  0.  0.  0.
581  5.80  0.  0.  0.
582  5.81  0.  0.  0.
583  5.82  0.  0.  0.
584  5.83  0.  0.  0.
585  5.84  0.  0.  0.
586  5.85  0.  0.  0.
587  5.86  0.  0.  0.
588  5.87  0.  0.  0.
589  5.88  0.  0.  0.
590  5.89  0.  0.  0.
591  5.90  0.  0.  0.
592  5.91  0.  0.  0.
593  5.92  0.  0.  0.
594  5.93  0.  0.  0.
595  5.94  0.  0.  0.
596  5.95  0.  0.  0.
597  5.96  0.  0.  0.
598  5.97  0.  0.  0.
599  5.98  0.  0.  0.
600  5.99  0.  0.  0.
1                         1.3859907035292E+01  1.6269051815436E+00 -1.1677512193693E-01
1  0.0000000000000E+00 -1.3009185978463E-08  3.3902647529616E-08 -3.3785711513190E-08
2  1.0000000000000E-02  3.9003471895432E-03 -4.8995626336823E-04  9.3868600911135E-04
3  2.0000000000000E-02  1.5575123626122E-02 -1.9605281440013E-03  3.7576391846034E-03
4  3.0000000000000E-02  3.4945489280486E-02 -4.4133084695324E-03  8.4650166611134E-03
5  4.0000000000000E-02  6.1879904793797E-02 -7.8492539496066E-03  1.5072676096744E-02
6  5.0000000000000E-02  9.6193955259702E-02 -1.2266219488734E-02  2.3593650601573E-02
7  6.0000000000000E-02  1.3765016763453E-01 -1.7655665823671E-02  3.4038773132849E-02
8  7.0000000000000E-02  1.8595788272171E-01 -2.3998693107006E-02  4.6412602822650E-02
9  8.0000000000000E-02  2.4077325568581E-01 -3.1261586961248E-02  6.0708839489495E-02
10  9.0000000000000E-02  3.0169946896914E-01 -3.9391090607203E-02  7.6905439503669E-02
11  1.0000000000000E-01  3.6828724785071E-01 -4.8309635898231E-02  9.4959665193691E-02
12  1.1000000000000E-01  4.4003577136520E-01 -5.7910776703859E-02  1.1480331033798E-01
13  1.2000000000000E-01  5.1639406969174E-01 -6.8055069615658E-02  1.3633834551950E-01
14  1.3000000000000E-01  5.9676299337118E-01 -7.8566639236361E-02  1.5943321908625E-01
15  1.4000000000000E-01  6.8049782991127E-01 -8.9230648522065E-02  1.8392003233154E-01
16  1.5000000000000E-01  7.6691162972946E-01 -9.9791869251834E-02  2.0959278178265E-01
17  1.6000000000000E-01  8.5527928634103E-01 -1.0995451447625E-01  2.3620682796086E-01
18  1.7000000000000E-01  9.4484239573268E-01 -1.1938345479968E-01  2.6347970973033E-01
19  1.8000000000000E-01  1.0348148975857E+00 -1.2770689487753E-01  2.9109337771142E-01
20  1.9000000000000E-01  1.1243894771397E+00 -1.3452053705790E-01  3.1869787071972E-01
21  2.0000000000000E-01  1.2127446817990E+00 -1.3939320732020E-01  3.4591640748618E-01
22  2.1000000000000E-01  1.2990526818973E+00 -1.4187386631177E-01  3.7235181378886E-01
23  2.2000000000000E-01  1.3824875812062E+00 -1.4149987714998E-01  3.9759415439768E-01
24  2.3000000000000E-01  1.4622341606128E+00 -1.3780635351700E-01  4.2122939168900E-01
25  2.4000000000000E-01  1.5374969187056E+00 -1.3033636812026E-01  4.4284885013253E-01
26  2.5000000000000E-01  1.6075092565134E+00 -1.1865176438532E-01  4.6205922965146E-01
27  2.6000000000000E-01  1.6715426409753E+00 -1.0234428465731E-01  4.7849288247335E-01
28  2.7000000000000E-01  1.7289155733943E+00 -8.1046707342471E-02  4.9181804864274E-01
29  2.8000000000000E-01  1.7790021855400E+00 -5.4443674176487E-02  5.0174873568827E-01
30  2.9000000000000E-01  1.8212402874419E+00 -2.2281887700521E-02  5.0805392854120E-01
31  3.0000000000000E-01  1.8551386973453E+00  1.5620631731695E-02  5.1056582685889E-01
32  3.1000000000000E-01  1.8802836956980E+00  5.9366520637364E-02  5.0918682824031E-01
33  3.2000000000000E-01  1.8963444611608E+00  1.0897254081140E-01  5.0389500689874E-01
34  3.3000000000000E-01  1.9030773670733E+00  1.6436476537839E-01  4.9474787731740E-01
35  3.4000000000000E-01  1.9003290410294E+00  2.2537566049691E-01  4.8188428007730E-01
36  3.5000000000000E-01  1.8880381175340E+00  2.9174318840141E-01  4.6552428095847E-01
37  3.6000000000000E-01  1.8662356433417E+00  3.6311200036296E-01  4.4596703288880E-01
38  3.7000000000000E-01  1.8350441261549E+00  4.3903672807266E-01  4.2358661148522E-01
39  3.8000000000000E-01  1.7946752489451E+00  5.1898732082867E-01  3.9882589681237E-01
40  3.9000000000000E-01  1.7454263033156E+00  6.0235631572726E-01  3.7218863454324E-01
41  4.0000000000000E-01  1.6876754250815E+00  6.8846787080121E-01  3.4422986691686E-01
42  4.1000000000000E-01  1.6218757427014E+00  7.7658833862005E-01  3.1554497581660E-01
43  4.2000000000000E-01  1.5485485735006E+00  8.6593811203360E-01  2.8675762514788E-01
44  4.3000000000000E-01  1.4682758230207E+00  9.5570443606880E-01  2.5850692590077E-01
45  4.4000000000000E-01  1.3816917586903E+00  1.0450548517887E+00  2.3143417353572E-01
46  4.5000000000000E-01  1.2894743398406E+00  1.1331509201996E+00  2.0616952263768E-01
47  4.6000000000000E-01  1.1923362915664E+00  1.2191618677078E+00  1.8331896751219E-01
48  4.7000000000000E-01  1.0910161098940E+00  1.3022777994832E+00  1.6345198929103E-01
49  4.8000000000000E-01  9.8626918020415E-01  1.3817221432867E+00  1.4709021032141E-01
50  4.9000000000000E-01  8.7885918006202E-01  1.4567630133962E+00  1.3469736566440E-01
51  5.0000000000000E-01  7.6954992192826E-01  1.5267232213712E+00  1.2667086035418E-01
52  5.1000000000000E-01  6.5909777120114E-01  1.5909887063319E+00  1.2333513094561E-01
53  5.2000000000000E-01  5.4824475137751E-01  1.6490152106856E+00  1.2493697240551E-01
54  5.3000000000000E-01  4.3771242163497E-01  1.7003330860328E+00  1.3164292845056E-01
55  5.4000000000000E-01  3.2819658375275E-01  1.7445501763531E+00  1.4353877708078E-01
56  5.5000000000000E-01  2.2036284599169E-01  1.7813527893635E+00  1.6063107551889E-01
57  5.6000000000000E-01  1.1484304236516E-01  1.8105048299831E+00  1.8285066232968E-01
58  5.7000000000000E-01  1.2232477672291E-02  1.8318452299211E+00  2.1005795143326E-01
59  5.8000000000000E-01 -8.6912057282510E-02  1.8452838624242E+00  2.4204979522765E-01
60  5.9000000000000E-01 -1.8207357878538E-01  1.8507961792159E+00  2.7856764412136E-01
61  6.0000000000000E-01 -2.7277560922056E-01  1.8484168459060E+00  3.1930668922354E-01
62  6.1000000000000E-01 -3.5858239417818E-01  1.8382326811942E+00  3.6392564523597E-01
63  6.2000000000000E-01 -4.3909875942574E-01  1.8203752229390E+00  4.1205681285078E-01
64  6.3000000000000E-01 -5.1396973373082E-01  1.7950132499044E+00  4.6331605491055E-01
65  6.4000000000000E-01 -5.8288006225335E-01  1.7623455814231E+00  5.1731232851378E-01
66  6.5000000000000E-01 -6.4555372852374E-01  1.7225944584716E+00  5.7365643599375E-01
67  6.6000000000000E-01 -7.0175359114738E-01  1.6759997793062E+00  6.3196869065076E-01
68  6.7000000000000E-01 -7.5128122478315E-01  1.6228144218574E+00  6.9188523722948E-01
69  6.8000000000000E-01 -7.9397703426644E-01  1.5633008349001E+00  7.5306282096102E-01
70  6.9000000000000E-01 -8.2972068678483E-01  1.4977290223546E+00  8.1518186071564E-01
71  7.0000000000000E-01 -8.5843188069386E-01  1.4263759819502E+00  8.7794774933193E-01
72  7.1000000000000E-01 -8.8007144191726E-01  1.3495265931702E+00  9.4109037514823E-01
73  7.2000000000000E-01 -8.9464271100528E-01  1.2674758822801E+00  1.0043619306715E+00
74  7.3000000000000E-01 -9.0219315696039E-01  1.1805325268353E+00  1.0675331445938E+00
75  7.4000000000000E-01 -9.0281612898877E-01  1.0890234007878E+00  1.1303881394723E+00
76  7.5000000000000E-01 -8.9665263546863E-01  9.9329890655723E-01  1.1927181768678E+00
77  7.6000000000000E-01 -8.8389302160674E-01  8.9373879434606E-01  1.2543146023502E+00
78  7.7000000000000E-01 -8.6477840432419E-01  7.9075813345439E-01  1.3149613425605E+00
79  7.8000000000000E-01 -8.3960171555102E-01  6.8481307695836E-01  1.3744273338402E+00
80  7.9000000000000E-01 -8.0870820380023E-01  5.7640605098823E-01  1.4324592756036E+00
81  8.0000000000000E-01 -7.7249524891323E-01  4.6609000369005E-01  1.4887751008891E+00
82  8.1000000000000E-01 -7.3141135626713E-01  3.5447136698851E-01  1.5430585411340E+00
83  8.2000000000000E-01 -6.8595421432568E-01  2.4221141620429E-01  1.5949551324336E+00
84  8.3000000000000E-01 -6.3666772278218E-01  1.3002575763040E-01  1.6440699671497E+00
85  8.4000000000000E-01 -5.8413792704448E-01  1.8681731071217E-02  1.6899674389831E+00
86  8.5000000000000E-01 -5.2898782760634E-01 -9.1006418618296E-02  1.7321731632448E+00
87  8.6000000000000E-01 -4.7187106890953E-01 -1.9818467189907E-01  1.7701781791728E+00
88  8.7000000000000E-01 -4.1346455045729E-01 -3.0196865708424E-01  1.8034454602031E+00
89  8.8000000000000E-01 -3.5446004191038E-01 -4.0145527177214E-01  1.8314186738332E+00
90  8.9000000000000E-01 -2.9555492233218E-01 -4.9573632632216E-01  1.8535330479805E+00
91  9.0000000000000E-01 -2.3744220028056E-01 -5.8391395181173E-01  1.8692281184996E+00
92  9.1000000000000E-01 -1.8080000472532E-01 -6.6511743996162E-01  1.8779620556764E+00
93  9.2000000000000E-01 -1.2628076553037E-01 -7.3852111606932E-01  1.8792271988517E+00
94  9.3000000000000E-01 -7.4500325323521E-02 -8.0336279057294E-01  1.8725663703906E+00
95  9.4000000000000E-01 -2.6027240997706E-02 -8.5896229265882E-01  1.8575894952103E+00
96  9.5000000000000E-01  1.8627457956699E-02 -9.0473956214164E-01  1.8339900218475E+00
97  9.6000000000000E-01  5.9019786153677E-02 -9.4023176498824E-01  1.8015606269151E+00
98  9.7000000000000E-01  9.4781333315513E-02 -9.6510890413935E-01  1.7602076875898E+00
99  9.8000000000000E-01  1.2562656461346E-01 -9.7918742091985E-01  1.7099640267344E+00