Cm    ONCVPSP-4.0.1  r_core=   1.15013   1.20650   1.10296   1.15013
96.0000     36.0000      220327    zatom,zion,pspd
8      11   3     4   600     0    pspcod,pspxc,lmax,lloc,mmax,r2well
5.99000000  5.00000000  0.00000000    rchrg fchrg qchrg
3     2     2     2     0    nproj
1     1           extension_switch
0                         3.1719926740399E+01  3.5492260691288E+00 -3.8021944612682E-01
1  0.0000000000000E+00 -3.5216185301223E-08  1.2065043775156E-07  1.2246279154637E-07
2  1.0000000000000E-02  1.5203070167887E-01 -6.1526312136070E-02  1.2145054083485E-02
3  2.0000000000000E-02  3.0309686430988E-01 -1.2181733068347E-01  2.4712500231722E-02
4  3.0000000000000E-02  4.5224495752700E-01 -1.7966477431885E-01  3.8103102948224E-02
5  4.0000000000000E-02  5.9854319992310E-01 -2.3391351110285E-01  5.2675249421898E-02
6  5.0000000000000E-02  7.4109177226640E-01 -2.8348597869008E-01  6.8725921630109E-02
7  6.0000000000000E-02  8.7903226410952E-01 -3.2740411131599E-01  8.6474168115972E-02
8  7.0000000000000E-02  1.0115561419580E+00 -3.6480809217190E-01  1.0604775707778E-01
9  8.0000000000000E-02  1.1379120623806E+00 -3.9497137043005E-01  1.2747356994571E-01
10  9.0000000000000E-02  1.2574118947665E+00 -4.1731152378584E-01  1.5067215054261E-01
11  1.0000000000000E-01  1.3694353642253E+00 -4.3139670435167E-01  1.7545666471981E-01
12  1.1000000000000E-01  1.4734332735689E+00 -4.3694757185888E-01  2.0153635513397E-01
13  1.2000000000000E-01  1.5689293124959E+00 -4.3383478684566E-01  2.2852440206678E-01
14  1.3000000000000E-01  1.6555205100711E+00 -4.2207230115991E-01  2.5594993051430E-01
15  1.4000000000000E-01  1.7328764314662E+00 -4.0180683720208E-01  2.8327374267698E-01
16  1.5000000000000E-01  1.8007372599342E+00 -3.7330408478614E-01  3.0990720961458E-01
17  1.6000000000000E-01  1.8589109385692E+00 -3.3693225991603E-01  3.3523363171364E-01
18  1.7000000000000E-01  1.9072695722424E+00 -2.9314375862061E-01  3.5863127948340E-01
19  1.8000000000000E-01  1.9457453072234E+00 -2.4245569780187E-01  3.7949725778178E-01
20  1.9000000000000E-01  1.9743259137522E+00 -1.8543016157019E-01  3.9727130047136E-01
21  2.0000000000000E-01  1.9930502949691E+00 -1.2265496478279E-01  4.1145860009899E-01
22  2.1000000000000E-01  2.0020041342809E+00 -5.4725705844844E-02  4.2165080855630E-01
23  2.2000000000000E-01  2.0013158729550E+00  1.7770190060560E-02  4.2754440863135E-01
24  2.3000000000000E-01  1.9911531813963E+00  9.4266835320606E-02  4.2895575045250E-01
25  2.4000000000000E-01  1.9717200523879E+00  1.7423017322821E-01  4.2583216749925E-01
26  2.5000000000000E-01  1.9432546040707E+00  2.5716486426511E-01  4.1825872950386E-01
27  2.6000000000000E-01  1.9060276363400E+00  3.4261758518759E-01  4.0646034880612E-01
28  2.7000000000000E-01  1.8603419385174E+00  4.3017672361441E-01  3.9079912650137E-01
29  2.8000000000000E-01  1.8065323005791E+00  5.1946861395202E-01  3.7176699862998E-01
30  2.9000000000000E-01  1.7449661368472E+00  6.1015061722343E-01  3.4997391412547E-01
31  3.0000000000000E-01  1.6760445917469E+00  7.0190149125135E-01  3.2613193882256E-01
32  3.1000000000000E-01  1.6002039637218E+00  7.9440962273276E-01  3.0103582741828E-01
33  3.2000000000000E-01  1.5179172571684E+00  8.8735979383953E-01  2.7554073238240E-01
34  3.3000000000000E-01  1.4296956544957E+00  9.8041922883487E-01  2.5053782070710E-01
35  3.4000000000000E-01  1.3360896919940E+00  1.0732237076957E+00  2.2692864234238E-01
36  3.5000000000000E-01  1.2376899245863E+00  1.1653645420191E+00  2.0559913557121E-01
37  3.6000000000000E-01  1.1351268758183E+00  1.2563771830290E+00  1.8739416301931E-01
38  3.7000000000000E-01  1.0290700902837E+00  1.3457321731497E+00  1.7309344735423E-01
39  3.8000000000000E-01  9.2022613537593E-01  1.4328290635099E+00  1.6338971910118E-01
40  3.9000000000000E-01  8.0933543669793E-01  1.5169938033336E+00  1.5886980275282E-01
41  4.0000000000000E-01  6.9716787524820E-01  1.5974799679877E+00  1.5999925492395E-01
42  4.1000000000000E-01  5.8451712293782E-01  1.6734740359488E+00  1.6711103412751E-01
43  4.2000000000000E-01  4.7219374419193E-01  1.7441047573436E+00  1.8039853108485E-01
44  4.3000000000000E-01  3.6101714332292E-01  1.8084564846676E+00  1.9991312715389E-01
45  4.4000000000000E-01  2.5180648796186E-01  1.8655861666711E+00  2.2556628266295E-01
46  4.5000000000000E-01  1.4537078605299E-01  1.9145435460543E+00  2.5713599301631E-01
47  4.6000000000000E-01  4.2498335828918E-02  1.9543939569986E+00  2.9427729457772E-01
48  4.7000000000000E-01 -5.6054196944893E-02  1.9842429955674E+00  3.3653636038594E-01
49  4.8000000000000E-01 -1.4957279381453E-01  2.0032622396904E+00  3.8336760296641E-01
50  4.9000000000000E-01 -2.3739689324338E-01  2.0107151297954E+00  4.3415310233106E-01
51  5.0000000000000E-01 -3.1892969141703E-01  2.0059820889947E+00  4.8822360521402E-01
52  5.1000000000000E-01 -3.9364763528347E-01  1.9885839645583E+00  5.4488029909768E-01
53  5.2000000000000E-01 -4.6110882425600E-01  1.9582029103281E+00  6.0341655288340E-01
54  5.3000000000000E-01 -5.2096006273514E-01  1.9146999014915E+00  6.6313883519851E-01
55  5.4000000000000E-01 -5.7294234081556E-01  1.8581281761358E+00  7.2338607014591E-01
56  5.5000000000000E-01 -6.1689456400460E-01  1.7887420284240E+00  7.8354676648722E-01
57  5.6000000000000E-01 -6.5275540294613E-01  1.7070005311673E+00  8.4307335646621E-01
58  5.7000000000000E-01 -6.8056318920581E-01  1.6135659352232E+00  9.0149330047950E-01
59  5.8000000000000E-01 -7.0045384113825E-01  1.5092966731075E+00  9.5841664863614E-01
60  5.9000000000000E-01 -7.1265686260992E-01  1.3952350776164E+00  1.0135398944248E+00
61  6.0000000000000E-01 -7.1748951476549E-01  1.2725901061905E+00  1.0666461034787E+00
62  6.1000000000000E-01 -7.1534931501476E-01  1.1427155314000E+00  1.1176014459537E+00
63  6.2000000000000E-01 -7.0670506604552E-01  1.0070842109305E+00  1.1663483986618E+00
64  6.3000000000000E-01 -6.9208665920856E-01  8.6725918111512E-01  1.2128960075971E+00
65  6.4000000000000E-01 -6.7207392962331E-01  7.2486242158195E-01  1.2573077081596E+00
66  6.5000000000000E-01 -6.4728486371443E-01  5.8154221128224E-01  1.2996872854036E+00
67  6.6000000000000E-01 -6.1836347287063E-01  4.3894003553829E-01  1.3401636170158E+00
68  6.7000000000000E-01 -5.8596764919280E-01  2.9865800864352E-01  1.3788748755756E+00
69  6.8000000000000E-01 -5.5075731095276E-01  1.6222774715567E-01  1.4159528731265E+00
70  6.9000000000000E-01 -5.1338312690417E-01  3.1081566865497E-02  1.4515082104726E+00
71  7.0000000000000E-01 -4.7447608084860E-01 -9.3473215712155E-02  1.4856168472672E+00
72  7.1000000000000E-01 -4.3463810207593E-01 -2.1027621466563E-01  1.5183086392529E+00
73  7.2000000000000E-01 -3.9443394497238E-01 -3.1833161553998E-01  1.5495582991733E+00
74  7.3000000000000E-01 -3.5438445396108E-01 -4.1682115728964E-01  1.5792791319522E+00
75  7.4000000000000E-01 -3.1496129988298E-01 -5.0511225114257E-01  1.6073197772402E+00
76  7.5000000000000E-01 -2.7658322291227E-01 -5.8276119932295E-01  1.6334640683462E+00
77  7.6000000000000E-01 -2.3961376708115E-01 -6.4951164019311E-01  1.6574339909782E+00
78  7.7000000000000E-01 -2.0436044433207E-01 -7.0528850029799E-01  1.6788956031688E+00
79  7.8000000000000E-01 -1.7107522344296E-01 -7.5018787232882E-01  1.6974676640590E+00
80  7.9000000000000E-01 -1.3995620266119E-01 -7.8446335624937E-01  1.7127326181964E+00
81  8.0000000000000E-01 -1.1115029564391E-01 -8.0850949471148E-01  1.7242494974040E+00
82  8.1000000000000E-01 -8.4756739210451E-02 -8.2284300047813E-01  1.7315682370656E+00
83  8.2000000000000E-01 -6.0831218990205E-02 -8.2808251108087E-01  1.7342448599577E+00
84  8.3000000000000E-01 -3.9390405445978E-02 -8.2492761379680E-01  1.7318569597287E+00
85  8.4000000000000E-01 -2.0416697749966E-02 -8.1413786289896E-01  1.7240189179857E+00
86  8.5000000000000E-01 -3.8629860217136E-03 -7.9651246281098E-01  1.7103963130164E+00
87  8.6000000000000E-01  1.0342737386312E-02 -7.7287121817942E-01  1.6907190228125E+00
88  8.7000000000000E-01  2.2293060705809E-02 -7.4403725874563E-01  1.6647925879155E+00
89  8.8000000000000E-01  3.2097242048648E-02 -7.1082193778778E-01  1.6325074775889E+00
90  8.9000000000000E-01  3.9877783702025E-02 -6.7401218286685E-01  1.5938459923742E+00
91  9.0000000000000E-01  4.5767534613373E-02 -6.3436045199179E-01  1.5488866332641E+00
92  9.1000000000000E-01  4.9907329070933E-02 -5.9257732252431E-01  1.4978058684342E+00
93  9.2000000000000E-01  5.2444136099921E-02 -5.4932661939396E-01  1.4408773286190E+00
94  9.3000000000000E-01  5.3529663737512E-02 -5.0522287833270E-01  1.3784685578734E+00
95  9.4000000000000E-01  5.3319336346673E-02 -4.6083084304903E-01  1.3110355341018E+00
96  9.5000000000000E-01  5.1971542487525E-02 -4.1666661604997E-01  1.2391152502527E+00
97  9.6000000000000E-01  4.9647036288642E-02 -3.7320002369389E-01  1.1633167100324E+00
98  9.7000000000000E-01  4.6508367169527E-02 -3.3085771861539E-01  1.0843107396043E+00
99  9.8000000000000E-01  4.2719211245766E-02 -2.9002652741199E-01  1.0028190479800E+00
100  9.9000000000000E-01  3.8443482594319E-02 -2.5105655796044E-01  9.1960298341974E-01
101  1.0000000000000E+00  3.3844113252868E-02 -2.1426360746994E-01  8.3545243158887E-01
102  1.0100000000000E+00  2.9081406609144E-02 -1.7993045706561E-01  7.5117528462913E-01
103  1.0200000000000E+00  2.4310888699138E-02 -1.4830669821622E-01  6.6758788048146E-01
104  1.0300000000000E+00  1.9680604760435E-02 -1.1960680716529E-01  5.8550677090955E-01
105  1.0400000000000E+00  1.5327832871454E-02 -9.4006261540770E-02  5.0574212741029E-01
106  1.0500000000000E+00  1.1375211365547E-02 -7.1635574376975E-02  4.2909303936895E-01
107  1.0600000000000E+00  7.9263006945979E-03 -5.2572200861392E-02  3.5634490120686E-01
108  1.0700000000000E+00  5.0606222476405E-03 -3.6830348017808E-02  2.8826902791083E-01
109  1.0800000000000E+00  2.8281237028816E-03 -2.4348449383391E-02  2.2562461188848E-01
110  1.0900000000000E+00  1.2439636740543E-03 -1.4976907829192E-02  1.6916285371351E-01
111  1.1000000000000E+00  2.3266892447409E-04 -8.3120168584762E-03  1.1964436544943E-01
112  1.1100000000000E+00 -3.4608922916475E-04 -3.7725710480096E-03  7.7835021010372E-02
113  1.1200000000000E+00 -5.2305892737857E-04 -1.1386290921450E-03  4.4434344635179E-02
114  1.1300000000000E+00 -4.0057900331912E-04 -2.0235516608276E-05  2.0038187144918E-02
115  1.1400000000000E+00 -1.4724585369805E-04  1.2736229660757E-04  5.0802429112654E-03
116  1.1500000000000E+00 -4.4788943499968E-07  5.3687827756064E-07  1.2685063909607E-05
117  1.1600000000000E+00 -1.2973300497962E-06  1.6758058196369E-06  3.5172088560720E-05
118  1.1700000000000E+00  7.8321130008596E-08 -8.4356462629221E-08 -2.4141093472220E-06
119  1.18  0.  0.  0.
120  1.19  0.  0.  0.
121  1.20  0.  0.  0.
122  1.21  0.  0.  0.
123  1.22  0.  0.  0.
124  1.23  0.  0.  0.
125  1.24  0.  0.  0.
126  1.25  0.  0.  0.
127  1.26  0.  0.  0.
128  1.27  0.  0.  0.
129  1.28  0.  0.  0.
130  1.29  0.  0.  0.
131  1.30  0.  0.  0.
132  1.31  0.  0.  0.
133  1.32  0.  0.  0.
134  1.33  0.  0.  0.
135  1.34  0.  0.  0.
136  1.35  0.  0.  0.
137  1.36  0.  0.  0.
138  1.37  0.  0.  0.
139  1.38  0.  0.  0.
140  1.39  0.  0.  0.
141  1.40  0.  0.  0.
142  1.41  0.  0.  0.
143  1.42  0.  0.  0.
144  1.43  0.  0.  0.
145  1.44  0.  0.  0.
146  1.45  0.  0.  0.
147  1.46  0.  0.  0.
148  1.47  0.  0.  0.
149  1.48  0.  0.  0.
150  1.49  0.  0.  0.
151  1.50  0.  0.  0.
152  1.51  0.  0.  0.
153  1.52  0.  0.  0.
154  1.53  0.  0.  0.
155  1.54  0.  0.  0.
156  1.55  0.  0.  0.
157  1.56  0.  0.  0.
158  1.57  0.  0.  0.
159  1.58  0.  0.  0.
160  1.59  0.  0.  0.
161  1.60  0.  0.  0.
162  1.61  0.  0.  0.
163  1.62  0.  0.  0.
164  1.63  0.  0.  0.
165  1.64  0.  0.  0.
166  1.65  0.  0.  0.
167  1.66  0.  0.  0.
168  1.67  0.  0.  0.
169  1.68  0.  0.  0.
170  1.69  0.  0.  0.
171  1.70  0.  0.  0.
172  1.71  0.  0.  0.
173  1.72  0.  0.  0.
174  1.73  0.  0.  0.
175  1.74  0.  0.  0.
176  1.75  0.  0.  0.
177  1.76  0.  0.  0.
178  1.77  0.  0.  0.
179  1.78  0.  0.  0.
180  1.79  0.  0.  0.
181  1.80  0.  0.  0.
182  1.81  0.  0.  0.
183  1.82  0.  0.  0.
184  1.83  0.  0.  0.
185  1.84  0.  0.  0.
186  1.85  0.  0.  0.
187  1.86  0.  0.  0.
188  1.87  0.  0.  0.
189  1.88  0.  0.  0.
190  1.89  0.  0.  0.
191  1.90  0.  0.  0.
192  1.91  0.  0.  0.
193  1.92  0.  0.  0.
194  1.93  0.  0.  0.
195  1.94  0.  0.  0.
196  1.95  0.  0.  0.
197  1.96  0.  0.  0.
198  1.97  0.  0.  0.
199  1.98  0.  0.  0.
200  1.99  0.  0.  0.
201  2.00  0.  0.  0.
202  2.01  0.  0.  0.
203  2.02  0.  0.  0.
204  2.03  0.  0.  0.
205  2.04  0.  0.  0.
206  2.05  0.  0.  0.
207  2.06  0.  0.  0.
208  2.07  0.  0.  0.
209  2.08  0.  0.  0.
210  2.09  0.  0.  0.
211  2.10  0.  0.  0.
212  2.11  0.  0.  0.
213  2.12  0.  0.  0.
214  2.13  0.  0.  0.
215  2.14  0.  0.  0.
216  2.15  0.  0.  0.
217  2.16  0.  0.  0.
218  2.17  0.  0.  0.
219  2.18  0.  0.  0.
220  2.19  0.  0.  0.
221  2.20  0.  0.  0.
222  2.21  0.  0.  0.
223  2.22  0.  0.  0.
224  2.23  0.  0.  0.
225  2.24  0.  0.  0.
226  2.25  0.  0.  0.
227  2.26  0.  0.  0.
228  2.27  0.  0.  0.
229  2.28  0.  0.  0.
230  2.29  0.  0.  0.
231  2.30  0.  0.  0.
232  2.31  0.  0.  0.
233  2.32  0.  0.  0.
234  2.33  0.  0.  0.
235  2.34  0.  0.  0.
236  2.35  0.  0.  0.
237  2.36  0.  0.  0.
238  2.37  0.  0.  0.
239  2.38  0.  0.  0.
240  2.39  0.  0.  0.
241  2.40  0.  0.  0.
242  2.41  0.  0.  0.
243  2.42  0.  0.  0.
244  2.43  0.  0.  0.
245  2.44  0.  0.  0.
246  2.45  0.  0.  0.
247  2.46  0.  0.  0.
248  2.47  0.  0.  0.
249  2.48  0.  0.  0.
250  2.49  0.  0.  0.
251  2.50  0.  0.  0.
252  2.51  0.  0.  0.
253  2.52  0.  0.  0.
254  2.53  0.  0.  0.
255  2.54  0.  0.  0.
256  2.55  0.  0.  0.
257  2.56  0.  0.  0.
258  2.57  0.  0.  0.
259  2.58  0.  0.  0.
260  2.59  0.  0.  0.
261  2.60  0.  0.  0.
262  2.61  0.  0.  0.
263  2.62  0.  0.  0.
264  2.63  0.  0.  0.
265  2.64  0.  0.  0.
266  2.65  0.  0.  0.
267  2.66  0.  0.  0.
268  2.67  0.  0.  0.
269  2.68  0.  0.  0.
270  2.69  0.  0.  0.
271  2.70  0.  0.  0.
272  2.71  0.  0.  0.
273  2.72  0.  0.  0.
274  2.73  0.  0.  0.
275  2.74  0.  0.  0.
276  2.75  0.  0.  0.
277  2.76  0.  0.  0.
278  2.77  0.  0.  0.
279  2.78  0.  0.  0.
280  2.79  0.  0.  0.
281  2.80  0.  0.  0.
282  2.81  0.  0.  0.
283  2.82  0.  0.  0.
284  2.83  0.  0.  0.
285  2.84  0.  0.  0.
286  2.85  0.  0.  0.
287  2.86  0.  0.  0.
288  2.87  0.  0.  0.
289  2.88  0.  0.  0.
290  2.89  0.  0.  0.
291  2.90  0.  0.  0.
292  2.91  0.  0.  0.
293  2.92  0.  0.  0.
294  2.93  0.  0.  0.
295  2.94  0.  0.  0.
296  2.95  0.  0.  0.
297  2.96  0.  0.  0.
298  2.97  0.  0.  0.
299  2.98  0.  0.  0.
300  2.99  0.  0.  0.
301  3.00  0.  0.  0.
302  3.01  0.  0.  0.
303  3.02  0.  0.  0.
304  3.03  0.  0.  0.
305  3.04  0.  0.  0.
306  3.05  0.  0.  0.
307  3.06  0.  0.  0.
308  3.07  0.  0.  0.
309  3.08  0.  0.  0.
310  3.09  0.  0.  0.
311  3.10  0.  0.  0.
312  3.11  0.  0.  0.
313  3.12  0.  0.  0.
314  3.13  0.  0.  0.
315  3.14  0.  0.  0.
316  3.15  0.  0.  0.
317  3.16  0.  0.  0.
318  3.17  0.  0.  0.
319  3.18  0.  0.  0.
320  3.19  0.  0.  0.
321  3.20  0.  0.  0.
322  3.21  0.  0.  0.
323  3.22  0.  0.  0.
324  3.23  0.  0.  0.
325  3.24  0.  0.  0.
326  3.25  0.  0.  0.
327  3.26  0.  0.  0.
328  3.27  0.  0.  0.
329  3.28  0.  0.  0.
330  3.29  0.  0.  0.
331  3.30  0.  0.  0.
332  3.31  0.  0.  0.
333  3.32  0.  0.  0.
334  3.33  0.  0.  0.
335  3.34  0.  0.  0.
336  3.35  0.  0.  0.
337  3.36  0.  0.  0.
338  3.37  0.  0.  0.
339  3.38  0.  0.  0.
340  3.39  0.  0.  0.
341  3.40  0.  0.  0.
342  3.41  0.  0.  0.
343  3.42  0.  0.  0.
344  3.43  0.  0.  0.
345  3.44  0.  0.  0.
346  3.45  0.  0.  0.
347  3.46  0.  0.  0.
348  3.47  0.  0.  0.
349  3.48  0.  0.  0.
350  3.49  0.  0.  0.
351  3.50  0.  0.  0.
352  3.51  0.  0.  0.
353  3.52  0.  0.  0.
354  3.53  0.  0.  0.
355  3.54  0.  0.  0.
356  3.55  0.  0.  0.
357  3.56  0.  0.  0.
358  3.57  0.  0.  0.
359  3.58  0.  0.  0.
360  3.59  0.  0.  0.
361  3.60  0.  0.  0.
362  3.61  0.  0.  0.
363  3.62  0.  0.  0.
364  3.63  0.  0.  0.
365  3.64  0.  0.  0.
366  3.65  0.  0.  0.
367  3.66  0.  0.  0.
368  3.67  0.  0.  0.
369  3.68  0.  0.  0.
370  3.69  0.  0.  0.
371  3.70  0.  0.  0.
372  3.71  0.  0.  0.
373  3.72  0.  0.  0.
374  3.73  0.  0.  0.
375  3.74  0.  0.  0.
376  3.75  0.  0.  0.
377  3.76  0.  0.  0.
378  3.77  0.  0.  0.
379  3.78  0.  0.  0.
380  3.79  0.  0.  0.
381  3.80  0.  0.  0.
382  3.81  0.  0.  0.
383  3.82  0.  0.  0.
384  3.83  0.  0.  0.
385  3.84  0.  0.  0.
386  3.85  0.  0.  0.
387  3.86  0.  0.  0.
388  3.87  0.  0.  0.
389  3.88  0.  0.  0.
390  3.89  0.  0.  0.
391  3.90  0.  0.  0.
392  3.91  0.  0.  0.
393  3.92  0.  0.  0.
394  3.93  0.  0.  0.
395  3.94  0.  0.  0.
396  3.95  0.  0.  0.
397  3.96  0.  0.  0.
398  3.97  0.  0.  0.
399  3.98  0.  0.  0.
400  3.99  0.  0.  0.
401  4.00  0.  0.  0.
402  4.01  0.  0.  0.
403  4.02  0.  0.  0.
404  4.03  0.  0.  0.
405  4.04  0.  0.  0.
406  4.05  0.  0.  0.
407  4.06  0.  0.  0.
408  4.07  0.  0.  0.
409  4.08  0.  0.  0.
410  4.09  0.  0.  0.
411  4.10  0.  0.  0.
412  4.11  0.  0.  0.
413  4.12  0.  0.  0.
414  4.13  0.  0.  0.
415  4.14  0.  0.  0.
416  4.15  0.  0.  0.
417  4.16  0.  0.  0.
418  4.17  0.  0.  0.
419  4.18  0.  0.  0.
420  4.19  0.  0.  0.
421  4.20  0.  0.  0.
422  4.21  0.  0.  0.
423  4.22  0.  0.  0.
424  4.23  0.  0.  0.
425  4.24  0.  0.  0.
426  4.25  0.  0.  0.
427  4.26  0.  0.  0.
428  4.27  0.  0.  0.
429  4.28  0.  0.  0.
430  4.29  0.  0.  0.
431  4.30  0.  0.  0.
432  4.31  0.  0.  0.
433  4.32  0.  0.  0.
434  4.33  0.  0.  0.
435  4.34  0.  0.  0.
436  4.35  0.  0.  0.
437  4.36  0.  0.  0.
438  4.37  0.  0.  0.
439  4.38  0.  0.  0.
440  4.39  0.  0.  0.
441  4.40  0.  0.  0.
442  4.41  0.  0.  0.
443  4.42  0.  0.  0.
444  4.43  0.  0.  0.
445  4.44  0.  0.  0.
446  4.45  0.  0.  0.
447  4.46  0.  0.  0.
448  4.47  0.  0.  0.
449  4.48  0.  0.  0.
450  4.49  0.  0.  0.
451  4.50  0.  0.  0.
452  4.51  0.  0.  0.
453  4.52  0.  0.  0.
454  4.53  0.  0.  0.
455  4.54  0.  0.  0.
456  4.55  0.  0.  0.
457  4.56  0.  0.  0.
458  4.57  0.  0.  0.
459  4.58  0.  0.  0.
460  4.59  0.  0.  0.
461  4.60  0.  0.  0.
462  4.61  0.  0.  0.
463  4.62  0.  0.  0.
464  4.63  0.  0.  0.
465  4.64  0.  0.  0.
466  4.65  0.  0.  0.
467  4.66  0.  0.  0.
468  4.67  0.  0.  0.
469  4.68  0.  0.  0.
470  4.69  0.  0.  0.
471  4.70  0.  0.  0.
472  4.71  0.  0.  0.
473  4.72  0.  0.  0.
474  4.73  0.  0.  0.
475  4.74  0.  0.  0.
476  4.75  0.  0.  0.
477  4.76  0.  0.  0.
478  4.77  0.  0.  0.
479  4.78  0.  0.  0.
480  4.79  0.  0.  0.
481  4.80  0.  0.  0.
482  4.81  0.  0.  0.
483  4.82  0.  0.  0.
484  4.83  0.  0.  0.
485  4.84  0.  0.  0.
486  4.85  0.  0.  0.
487  4.86  0.  0.  0.
488  4.87  0.  0.  0.
489  4.88  0.  0.  0.
490  4.89  0.  0.  0.
491  4.90  0.  0.  0.
492  4.91  0.  0.  0.
493  4.92  0.  0.  0.
494  4.93  0.  0.  0.
495  4.94  0.  0.  0.
496  4.95  0.  0.  0.
497  4.96  0.  0.  0.
498  4.97  0.  0.  0.
499  4.98  0.  0.  0.
500  4.99  0.  0.  0.
501  5.00  0.  0.  0.
502  5.01  0.  0.  0.
503  5.02  0.  0.  0.
504  5.03  0.  0.  0.
505  5.04  0.  0.  0.
506  5.05  0.  0.  0.
507  5.06  0.  0.  0.
508  5.07  0.  0.  0.
509  5.08  0.  0.  0.
510  5.09  0.  0.  0.
511  5.10  0.  0.  0.
512  5.11  0.  0.  0.
513  5.12  0.  0.  0.
514  5.13  0.  0.  0.
515  5.14  0.  0.  0.
516  5.15  0.  0.  0.
517  5.16  0.  0.  0.
518  5.17  0.  0.  0.
519  5.18  0.  0.  0.
520  5.19  0.  0.  0.
521  5.20  0.  0.  0.
522  5.21  0.  0.  0.
523  5.22  0.  0.  0.
524  5.23  0.  0.  0.
525  5.24  0.  0.  0.
526  5.25  0.  0.  0.
527  5.26  0.  0.  0.
528  5.27  0.  0.  0.
529  5.28  0.  0.  0.
530  5.29  0.  0.  0.
531  5.30  0.  0.  0.
532  5.31  0.  0.  0.
533  5.32  0.  0.  0.
534  5.33  0.  0.  0.
535  5.34  0.  0.  0.
536  5.35  0.  0.  0.
537  5.36  0.  0.  0.
538  5.37  0.  0.  0.
539  5.38  0.  0.  0.
540  5.39  0.  0.  0.
541  5.40  0.  0.  0.
542  5.41  0.  0.  0.
543  5.42  0.  0.  0.
544  5.43  0.  0.  0.
545  5.44  0.  0.  0.
546  5.45  0.  0.  0.
547  5.46  0.  0.  0.
548  5.47  0.  0.  0.
549  5.48  0.  0.  0.
550  5.49  0.  0.  0.
551  5.50  0.  0.  0.
552  5.51  0.  0.  0.
553  5.52  0.  0.  0.
554  5.53  0.  0.  0.
555  5.54  0.  0.  0.
556  5.55  0.  0.  0.
557  5.56  0.  0.  0.
558  5.57  0.  0.  0.
559  5.58  0.  0.  0.
560  5.59  0.  0.  0.
561  5.60  0.  0.  0.
562  5.61  0.  0.  0.
563  5.62  0.  0.  0.
564  5.63  0.  0.  0.
565  5.64  0.  0.  0.
566  5.65  0.  0.  0.
567  5.66  0.  0.  0.
568  5.67  0.  0.  0.
569  5.68  0.  0.  0.
570  5.69  0.  0.  0.
571  5.70  0.  0.  0.
572  5.71  0.  0.  0.
573  5.72  0.  0.  0.
574  5.73  0.  0.  0.
575  5.74  0.  0.  0.
576  5.75  0.  0.  0.
577  5.76  0.  0.  0.
578  5.77  0.  0.  0.
579  5.78  0.  0.  0.
580  5.79  0.  0.  0.
581  5.80  0.  0.  0.
582  5.81  0.  0.  0.
583  5.82  0.  0.  0.
584  5.83  0.  0.  0.
585  5.84  0.  0.  0.
586  5.85  0.  0.  0.
587  5.86  0.  0.  0.
588  5.87  0.  0.  0.
589  5.88  0.  0.  0.
590  5.89  0.  0.  0.
591  5.90  0.  0.  0.
592  5.91  0.  0.  0.
593  5.92  0.  0.  0.
594  5.93  0.  0.  0.
595  5.94  0.  0.  0.
596  5.95  0.  0.  0.
597  5.96  0.  0.  0.
598  5.97  0.  0.  0.
599  5.98  0.  0.  0.
600  5.99  0.  0.  0.
1                         6.2069764551726E+00 -3.8827845049778E+00
1  0.0000000000000E+00  1.2804434706970E-08  4.2510057668421E-08
2  1.0000000000000E-02  2.7790818559655E-03 -2.8720510864487E-03
3  2.0000000000000E-02  1.1094188041401E-02 -1.1474723165654E-02
4  3.0000000000000E-02  2.4879223543171E-02 -2.5767005116862E-02
5  4.0000000000000E-02  4.4025098635940E-02 -4.5678682820672E-02
6  5.0000000000000E-02  6.8381302403352E-02 -7.1107648572675E-02
7  6.0000000000000E-02  9.7758047787804E-02 -1.0191633592350E-01
8  7.0000000000000E-02  1.3192893251436E-01 -1.3792747259218E-01
9  8.0000000000000E-02  1.7063404742990E-01 -1.7891938660976E-01
10  9.0000000000000E-02  2.1358345317640E-01 -2.2462113455082E-01
11  1.0000000000000E-01  2.6046093801085E-01 -2.7470774427755E-01
12  1.1000000000000E-01  3.1092796424633E-01 -3.2879587707491E-01
13  1.2000000000000E-01  3.6462770837747E-01 -3.8644021480020E-01
14  1.3000000000000E-01  4.2118910053523E-01 -4.4713086651208E-01
15  1.4000000000000E-01  4.8023077245326E-01 -5.1029206620349E-01
16  1.5000000000000E-01  5.4136482948892E-01 -5.7528239936798E-01
17  1.6000000000000E-01  6.0420037120041E-01 -6.4139675219757E-01
18  1.7000000000000E-01  6.6834669622187E-01 -7.0787012462091E-01
19  1.8000000000000E-01  7.3341614031345E-01 -7.7388338883376E-01
20  1.9000000000000E-01  7.9902651103817E-01 -8.3857101040532E-01
21  2.0000000000000E-01  8.6480309803052E-01 -9.0103068161266E-01
22  2.1000000000000E-01  9.3038025373810E-01 -9.6033474864141E-01
23  2.2000000000000E-01  9.9540255528920E-01 -1.0155432480227E+00
24  2.3000000000000E-01  1.0595255732196E+00 -1.0657183054584E+00
25  2.4000000000000E-01  1.1224162866596E+00 -1.1099395942191E+00
26  2.5000000000000E-01  1.1837531967524E+00 -1.1473205026007E+00
27  2.6000000000000E-01  1.2432262001247E+00 -1.1770246222715E+00
28  2.7000000000000E-01  1.3005362917973E+00 -1.1982821431877E+00
29  2.8000000000000E-01  1.3553951717489E+00 -1.2104057272021E+00
30  2.9000000000000E-01  1.4075248312347E+00 -1.2128054322232E+00
31  3.0000000000000E-01  1.4566571938585E+00 -1.2050022720618E+00
32  3.1000000000000E-01  1.5025338823063E+00 -1.1866400237344E+00
33  3.2000000000000E-01  1.5449061747242E+00 -1.1574949333376E+00
34  3.3000000000000E-01  1.5835352051793E+00 -1.1174830225981E+00
35  3.4000000000000E-01  1.6181924508176E+00 -1.0666647593609E+00
36  3.5000000000000E-01  1.6486605346289E+00 -1.0052469247807E+00
37  3.6000000000000E-01  1.6747343576333E+00 -9.3358158568734E-01
38  3.7000000000000E-01  1.6962225583462E+00 -8.5216216015192E-01
39  3.8000000000000E-01  1.7129492811366E+00 -7.6161664515541E-01
40  3.9000000000000E-01  1.7247562191554E+00 -6.6269815486274E-01
41  4.0000000000000E-01  1.7315048824639E+00 -5.5627299374594E-01
42  4.1000000000000E-01  1.7330790284067E+00 -4.4330655819456E-01
43  4.2000000000000E-01  1.7293871796665E+00 -3.2484742099198E-01
44  4.3000000000000E-01  1.7203651462805E+00 -2.0201000308527E-01
45  4.4000000000000E-01  1.7059784615644E+00 -7.5956274725395E-02
46  4.5000000000000E-01  1.6862246386767E+00  5.2123048005503E-02
47  4.6000000000000E-01  1.6611351546558E+00  1.8102733589434E-01
48  4.7000000000000E-01  1.6307770722351E+00  3.0956443872646E-01
49  4.8000000000000E-01  1.5952542165628E+00  4.3656818746882E-01
50  4.9000000000000E-01  1.5547078339502E+00  5.6091459177582E-01
51  5.0000000000000E-01  1.5093166726785E+00  6.8153636584089E-01
52  5.1000000000000E-01  1.4592964413276E+00  7.9743547492592E-01
53  5.2000000000000E-01  1.4048986175780E+00  9.0769346379242E-01
54  5.3000000000000E-01  1.3464085994169E+00  1.0114794044225E+00
55  5.4000000000000E-01  1.2841432105439E+00  1.1080553812700E+00
56  5.5000000000000E-01  1.2184475918464E+00  1.1967795150608E+00
57  5.6000000000000E-01  1.1496915304323E+00  1.2771066080047E+00
58  5.7000000000000E-01  1.0782652961745E+00  1.3485865713419E+00
59  5.8000000000000E-01  1.0045750723963E+00  1.4108608676874E+00
60  5.9000000000000E-01  9.2903808159827E-01  1.4636572631054E+00
61  6.0000000000000E-01  8.5207751846600E-01  1.5067832350081E+00
62  6.1000000000000E-01  7.7411741035269E-01  1.5401184199501E+00
63  6.2000000000000E-01  6.9557752967971E-01  1.5636065087677E+00
64  6.3000000000000E-01  6.1686848300767E-01  1.5772470043632E+00
65  6.4000000000000E-01  5.3838709783019E-01  1.5810872493845E+00
66  6.5000000000000E-01  4.6051222047183E-01  1.5752151072875E+00
67  6.6000000000000E-01  3.8360102702223E-01  1.5597526415411E+00
68  6.7000000000000E-01  3.0798593432494E-01  1.5348510853392E+00
69  6.8000000000000E-01  2.3397218010401E-01  1.5006873299286E+00
70  6.9000000000000E-01  1.6183612090609E-01  1.4574620858111E+00
71  7.0000000000000E-01  9.1824274304043E-02  1.4053997902575E+00
72  7.1000000000000E-01  2.4153108469806E-02  1.3447502497352E+00
73  7.2000000000000E-01 -4.0990441456773E-02  1.2757919200981E+00
74  7.3000000000000E-01 -1.0344777400450E-01  1.1988366439595E+00
75  7.4000000000000E-01 -1.6308680480679E-01  1.1142355867178E+00
76  7.5000000000000E-01 -2.1979961862493E-01  1.0223860432997E+00
77  7.6000000000000E-01 -2.7349969304155E-01  9.2373872960817E-01
78  7.7000000000000E-01 -3.2411881088520E-01  8.1880512834134E-01
79  7.8000000000000E-01 -3.7160378858557E-01  7.0816443029163E-01
80  7.9000000000000E-01 -4.1591315356902E-01  5.9246960088961E-01
81  8.0000000000000E-01 -4.5701390522876E-01  4.7245210849997E-01
82  8.1000000000000E-01 -4.9487849083583E-01  3.4892487605889E-01
83  8.2000000000000E-01 -5.2948212004680E-01  2.2278306064615E-01
84  8.3000000000000E-01 -5.6080052961477E-01  9.5002325460788E-02
85  8.4000000000000E-01 -5.8880829387826E-01 -3.3365656270985E-02
86  8.5000000000000E-01 -6.1347775708279E-01 -1.6120063793760E-01
87  8.6000000000000E-01 -6.3477864120501E-01 -2.8732425107118E-01
88  8.7000000000000E-01 -6.5267835842663E-01 -4.1051344099161E-01
89  8.8000000000000E-01 -6.6714303155537E-01 -5.2951674723117E-01
90  8.9000000000000E-01 -6.7813919937977E-01 -6.4307318111002E-01
91  9.0000000000000E-01 -6.8563615806657E-01 -7.4993334859216E-01
92  9.1000000000000E-01 -6.8960886515491E-01 -8.4888237011685E-01
93  9.2000000000000E-01 -6.9004131032593E-01 -9.3876406402286E-01
94  9.3000000000000E-01 -6.8693023772609E-01 -1.0185057897284E+00
95  9.4000000000000E-01 -6.8028908889378E-01 -1.0871432938018E+00
96  9.5000000000000E-01 -6.7015202387502E-01 -1.1438448687808E+00
97  9.6000000000000E-01 -6.5657787135752E-01 -1.1879341227203E+00
98  9.7000000000000E-01 -6.3965385690127E-01 -1.2189106679911E+00
99  9.8000000000000E-01 -6.1949896172091E-01 -1.2364680710180E+00
100  9.9000000000000E-01 -5.9626677294197E-01 -1.2405084600098E+00
101  1.0000000000000E+00 -5.7014769958951E-01 -1.2311532639886E+00
102  1.0100000000000E+00 -5.4137044639139E-01 -1.2087496516422E+00
103  1.0200000000000E+00 -5.1020265923634E-01 -1.1738723499948E+00
104  1.0300000000000E+00 -4.7695068117878E-01 -1.1273206475802E+00
105  1.0400000000000E+00 -4.4195838538545E-01 -1.0701105207722E+00
106  1.0500000000000E+00 -4.0560508050153E-01 -1.0034619611903E+00
107  1.0600000000000E+00 -3.6830251368161E-01 -9.2878172256994E-01
108  1.0700000000000E+00 -3.3049102589242E-01 -8.4764184224089E-01
109  1.0800000000000E+00 -2.9263494219446E-01 -7.6175442158844E-01
110  1.0900000000000E+00 -2.5521730576958E-01 -6.7294326789980E-01
111  1.1000000000000E+00 -2.1873407133053E-01 -5.8311304514508E-01
112  1.1100000000000E+00 -1.8368772768169E-01 -4.9421607898441E-01
113  1.1200000000000E+00 -1.5057254185432E-01 -4.0818915360132E-01
114  1.1300000000000E+00 -1.1985260636625E-01 -3.2686361574595E-01
115  1.1400000000000E+00 -9.1952511230999E-02 -2.5191979767886E-01
116  1.1500000000000E+00 -6.7246380227007E-02 -1.8482899048034E-01
117  1.1600000000000E+00 -4.6022688495237E-02 -1.2668324523663E-01
118  1.1700000000000E+00 -2.8571302447840E-02 -7.8619538236785E-02
119  1.1800000000000E+00 -1.5132771657379E-02 -4.1552123048866E-02
120  1.1900000000000E+00 -5.8814889135928E-03 -1.6086351266135E-02
121  1.2000000000000E+00 -9.2327173563867E-04 -2.5107960136369E-03
122  1.2100000000000E+00  5.2743427658927E-05  1.4272136208541E-04
123  1.2200000000000E+00 -6.2373550590540E-06 -1.6914669395520E-05
124  1.23  0.  0.
125  1.24  0.  0.
126  1.25  0.  0.
127  1.26  0.  0.
128  1.27  0.  0.
129  1.28  0.  0.
130  1.29  0.  0.
131  1.30  0.  0.
132  1.31  0.  0.
133  1.32  0.  0.
134  1.33  0.  0.
135  1.34  0.  0.
136  1.35  0.  0.
137  1.36  0.  0.
138  1.37  0.  0.
139  1.38  0.  0.
140  1.39  0.  0.
141  1.40  0.  0.
142  1.41  0.  0.
143  1.42  0.  0.
144  1.43  0.  0.
145  1.44  0.  0.
146  1.45  0.  0.
147  1.46  0.  0.
148  1.47  0.  0.
149  1.48  0.  0.
150  1.49  0.  0.
151  1.50  0.  0.