<UPF version="2.0.1">
   <PP_INFO>
       Converted from CP2K GTH format
       <PP_INPUTFILE>
Sm
    4    6    0    6
    0.52529414700000       2   17.25159970500000   -0.53185908400000
       4
    0.47954112500000       2    1.73066675400000    1.00986271000000
                                                   -2.66121331200000
    0.48971455500000       2   -0.09106334100000    0.46548574600000
                                                   -1.10994188700000
    0.47079876700000       1   -0.41025574400000
    0.28444433300000       1  -19.97332704800000
       </PP_INPUTFILE>
   </PP_INFO>
<PP_HEADER generated="Generated in analytical, separable form" author="Goedecker/Hartwigsen/Hutter/Teter" date="Phys.Rev.B58, 3641 (1998); B54, 1703 (1996)" comment="This file generated by CP2K ATOM code" element="Sm" pseudo_type="NC" relativistic="no" is_ultrasoft="F" is_paw="F" is_coulomb="F" has_so="F" has_wfc="F" has_gipaw="F" paw_as_gipaw="F" core_correction="F" functional="PBE" z_valence="16.000000" total_psenergy="-157.38651" wfc_cutoff="0.0E+00" rho_cutoff="0.0E+00" l_max="3" l_max_rho="0" l_local="-3" mesh_size="400" number_of_wfc="4" number_of_proj="6"/>
<PP_MESH dx="1.E+00" mesh="400" xmin="1.E+00" rmax="37.538233" zmesh="1.E+00">
<PP_R type="real" size="400" columns="4">
                 7.228531905840E-012      2.312864325289E-010      1.756074521379E-009      7.398569445367E-009
                 2.257270378487E-008      5.615005557072E-008      1.213162927515E-007      2.364223204926E-007
                 4.258290844471E-007      7.207449890120E-007      1.160054909147E-006      1.791139767172E-006
                 2.670685677711E-006      3.865481663061E-006      5.453204962945E-006      7.523192980019E-006
                 1.017720092318E-005      1.353014422206E-005      1.771082482029E-005      2.286264047227E-005
                 2.914427619268E-005      3.673037704274E-005      4.581220145256E-005      5.659825432958E-005
                 6.931489921174E-005      8.420694877757E-005      1.015382330494E-004      1.215921446646E-004
                 1.446721606313E-004      1.711023400177E-004      2.012277970716E-004      2.354151493029E-004
                 2.740529401062E-004      3.175520355465E-004      3.663459949669E-004      4.208914151361E-004
                 4.816682476870E-004      5.491800896434E-004      6.239544468956E-004      7.065429705011E-004
                 7.975216657713E-004      8.974910741177E-004      1.007076427698E-003      1.126927776949E-003
                 1.257720091117E-003      1.400153331984E-003      1.554952500982E-003      1.722867659976E-003
                 1.904673926010E-003      2.101171440373E-003      2.313185312365E-003      2.541565538204E-003
                 2.787186895526E-003      3.050948814001E-003      3.333775222598E-003      3.636614374068E-003
                 3.960438647275E-003      4.306244327987E-003      4.675051368821E-003      5.067903129025E-003
                 5.485866094815E-003      5.930029581032E-003      6.401505414863E-003      6.901427602428E-003
                 7.430951979029E-003      7.991255843892E-003      8.583537580214E-003      9.209016261390E-003
                 9.868931244244E-003      1.056454175014E-002      1.129712643487E-002      1.206798294807E-002
                 1.287842748325E-002      1.372979431910E-002      1.462343535301E-002      1.556071962777E-002
                 1.654303285211E-002      1.757177691615E-002      1.864836940243E-002      1.977424309344E-002
                 2.095084547643E-002      2.217963824638E-002      2.346209680777E-002      2.479970977614E-002
                 2.619397847995E-002      2.764641646372E-002      2.915854899299E-002      3.073191256189E-002
                 3.236805440397E-002      3.406853200696E-002      3.583491263211E-002      3.766877283861E-002
                 3.957169801390E-002      4.154528191019E-002      4.359112618790E-002      4.571083996641E-002
                 4.790603938278E-002      5.017834715870E-002      5.252939217625E-002      5.496080906286E-002
                 5.747423778579E-002      6.007132325664E-002      6.275371494606E-002      6.552306650908E-002
                 6.838103542140E-002      7.132928262675E-002      7.436947219571E-002      7.750327099620E-002
                 8.073234837571E-002      8.405837585567E-002      8.748302683793E-002      9.100797632353E-002
                 9.463490064405E-002      9.836547720532E-002      1.022013842439E-001      1.061443005961E-001
                 1.101959054801E-001      1.143578782902E-001      1.186318984046E-001      1.230196450052E-001
                 1.275227969110E-001      1.321430324236E-001      1.368820291856E-001      1.417414640521E-001
                 1.467230129737E-001      1.518283508934E-001      1.570591516549E-001      1.624170879239E-001
                 1.679038311214E-001      1.735210513687E-001      1.792704174456E-001      1.851535967594E-001
                 1.911722553262E-001      1.973280577639E-001      2.036226672965E-001      2.100577457700E-001
                 2.166349536797E-001      2.233559502079E-001      2.302223932736E-001      2.372359395924E-001
                 2.443982447470E-001      2.517109632686E-001      2.591757487283E-001      2.667942538394E-001
                 2.745681305689E-001      2.824990302595E-001      2.905886037615E-001      2.988385015741E-001
                 3.072503739961E-001      3.158258712863E-001      3.245666438335E-001      3.334743423346E-001
                 3.425506179825E-001      3.517971226631E-001      3.612155091603E-001      3.708074313703E-001
                 3.805745445241E-001      3.905185054189E-001      4.006409726574E-001      4.109436068957E-001
                 4.214280710995E-001      4.320960308078E-001      4.429491544058E-001      4.539891134046E-001
                 4.652175827297E-001      4.766362410170E-001      4.882467709168E-001      5.000508594059E-001
                 5.120501981066E-001      5.242464836148E-001      5.366414178349E-001      5.492367083228E-001
                 5.620340686366E-001      5.750352186954E-001      5.882418851457E-001      6.016558017355E-001
                 6.152787096965E-001      6.291123581344E-001      6.431585044268E-001      6.574189146298E-001
                 6.718953638918E-001      6.865896368767E-001      7.015035281944E-001      7.166388428405E-001
                 7.319973966441E-001      7.475810167245E-001      7.633915419568E-001      7.794308234462E-001
                 7.957007250116E-001      8.122031236787E-001      8.289399101821E-001      8.459129894777E-001
                 8.631242812646E-001      8.805757205168E-001      8.982692580262E-001      9.162068609552E-001
                 9.343905134007E-001      9.528222169690E-001      9.715039913620E-001      9.904378749755E-001
                 1.009625925509E+000      1.029070220588E+000      1.048772858398E+000      1.068735958337E+000
                 1.088961661669E+000      1.109452132207E+000      1.130209556997E+000      1.151236147027E+000
                 1.172534137941E+000      1.194105790777E+000      1.215953392715E+000      1.238079257849E+000
                 1.260485727966E+000      1.283175173350E+000      1.306149993603E+000      1.329412618482E+000
                 1.352965508759E+000      1.376811157098E+000      1.400952088955E+000      1.425390863497E+000
                 1.450130074544E+000      1.475172351538E+000      1.500520360528E+000      1.526176805187E+000
                 1.552144427849E+000      1.578426010572E+000      1.605024376237E+000      1.631942389661E+000
                 1.659182958755E+000      1.686749035695E+000      1.714643618141E+000      1.742869750475E+000
                 1.771430525085E+000      1.800329083670E+000      1.829568618593E+000      1.859152374268E+000
                 1.889083648581E+000      1.919365794358E+000      1.950002220874E+000      1.980996395400E+000
                 2.012351844801E+000      2.044072157181E+000      2.076160983571E+000      2.108622039676E+000
                 2.141459107664E+000      2.174676038024E+000      2.208276751464E+000      2.242265240886E+000
                 2.276645573405E+000      2.311421892445E+000      2.346598419898E+000      2.382179458348E+000
                 2.418169393373E+000      2.454572695920E+000      2.491393924754E+000      2.528637728999E+000
                 2.566308850751E+000      2.604412127792E+000      2.642952496385E+000      2.681934994175E+000
                 2.721364763182E+000      2.761247052908E+000      2.801587223544E+000      2.842390749298E+000
                 2.883663221839E+000      2.925410353867E+000      2.967637982812E+000      3.010352074671E+000
                 3.053558727987E+000      3.097264177970E+000      3.141474800791E+000      3.186197118017E+000
                 3.231437801233E+000      3.277203676836E+000      3.323501731019E+000      3.370339114947E+000
                 3.417723150143E+000      3.465661334090E+000      3.514161346055E+000      3.563231053154E+000
                 3.612878516668E+000      3.663111998616E+000      3.713939968608E+000      3.765371110986E+000
                 3.817414332269E+000      3.870078768920E+000      3.923373795443E+000      3.977309032850E+000
                 4.031894357485E+000      4.087139910253E+000      4.143056106261E+000      4.199653644897E+000
                 4.256943520375E+000      4.314937032760E+000      4.373645799524E+000      4.433081767629E+000
                 4.493257226203E+000      4.554184819816E+000      4.615877562408E+000      4.678348851898E+000
                 4.741612485516E+000      4.805682675913E+000      4.870574068078E+000      4.936301757123E+000
                 5.002881306988E+000      5.070328770130E+000      5.138660708242E+000      5.207894214084E+000
                 5.278046934493E+000      5.349137094648E+000      5.421183523671E+000      5.494205681666E+000
                 5.568223688271E+000      5.643258352849E+000      5.719331206425E+000      5.796464535479E+000
                 5.874681417749E+000      5.954005760167E+000      6.034462339099E+000      6.116076843049E+000
                 6.198875918020E+000      6.282887215716E+000      6.368139444825E+000      6.454662425599E+000
                 6.542487148013E+000      6.631645833757E+000      6.722172002407E+000      6.814100542080E+000
                 6.907467784972E+000      7.002311588172E+000      7.098671420209E+000      7.196588453825E+000
                 7.296105665516E+000      7.397267942450E+000      7.500122197423E+000      7.604717492587E+000
                 7.711105172772E+000      7.819339009305E+000      7.929475355336E+000      8.041573313791E+000
                 8.155694919205E+000      8.271905334840E+000      8.390273066649E+000      8.510870195845E+000
                 8.633772632060E+000      8.759060389306E+000      8.886817887264E+000      9.017134280726E+000
                 9.150103820425E+000      9.285826248894E+000      9.424407235538E+000      9.565958855643E+000
                 9.710600118790E+000      9.858457552895E+000      1.000966585107E+001      1.016436858957E+001
                 1.032271902643E+001      1.048488099195E+001      1.065102988390E+001      1.082135378276E+001
                 1.099605470457E+001      1.117535001252E+001      1.135947401186E+001      1.154867975754E+001
                 1.174324110956E+001      1.194345507794E+001      1.214964450766E+001      1.236216116444E+001
                 1.258138929561E+001      1.280774975627E+001      1.304170481237E+001      1.328376375824E+001
                 1.353448952018E+001      1.379450646144E+001      1.406450966091E+001      1.434527601224E+001
                 1.463767758998E+001      1.494269786185E+001      1.526145150691E+001      1.559520884718E+001
                 1.594542624451E+001      1.631378430061E+001      1.670223639493E+001      1.711307111027E+001
                 1.754899360592E+001      1.801323328759E+001      1.850968868074E+001      1.904312608737E+001
                 1.961945791891E+001      2.024614242797E+001      2.093277449563E+001      2.169198875964E+001
                 2.254089690758E+001      2.350348978035E+001      2.461490370703E+001      2.592961189953E+001
                 2.753887284742E+001      2.961376515718E+001      3.253836568394E+001      3.753823280979E+001
       </PP_R>
<PP_RAB type="real" size="400" columns="4">
                 3.614124658553E-011      5.781889644942E-010      2.926482822178E-009      9.246481950686E-009
                 2.256610649277E-008      4.677201989329E-008      8.660485618259E-008      1.476533978501E-007
                 2.363477113065E-007      3.599512483873E-007      5.265519238488E-007      7.450521803571E-007
                 1.025158054050E-006      1.377367255368E-006      1.812956281504E-006      2.343966578475E-006
                 2.983189772507E-006      3.744151992124E-006      4.641097304007E-006      5.688970287397E-006
                 6.903397773471E-006      8.300669777804E-006      9.897719655635E-006      1.171210351127E-005
                 1.376197889448E-005      1.606608281835E-005      1.864370913430E-005      2.151468530162E-005
                 2.469934859001E-005      2.821852175490E-005      3.209348822650E-005      3.634596685466E-005
                 4.099808625240E-005      4.607235878206E-005      5.159165422875E-005      5.757917320621E-005
                 6.405842034116E-005      7.105317728221E-005      7.858747558006E-005      8.668556948560E-005
                 9.537190871294E-005      1.046711112140E-004      1.146079360114E-004      1.252072561357E-004
                 1.364940317128E-004      1.484932832477E-004      1.612300651479E-004      1.747294395304E-004
                 1.890164503572E-004      2.041160979379E-004      2.200533138429E-004      2.368529362653E-004
                 2.545396858704E-004      2.731381421682E-004      2.926727204461E-004      3.131676492934E-004
                 3.346469487508E-004      3.571344091148E-004      3.806535704247E-004      4.052277026592E-004
                 4.308797866675E-004      4.576324958568E-004      4.855081786566E-004      5.145288417798E-004
                 5.447161342952E-004      5.760913325278E-004      6.086753257976E-004      6.424886030090E-004
                 6.775512400976E-004      7.138828883422E-004      7.515027635455E-004      7.904296360855E-004
                 8.306818218401E-004      8.722771739811E-004      9.152330756359E-004      9.595664334113E-004
                 1.005293671774E-003      1.052430728276E-003      1.100993049621E-003      1.150995588554E-003
                 1.202452801564E-003      1.255378647387E-003      1.309786586292E-003      1.365689580135E-003
                 1.423100093157E-003      1.482030093517E-003      1.542491055533E-003      1.604493962612E-003
                 1.668049310850E-003      1.733167113275E-003      1.799856904713E-003      1.868127747257E-003
                 1.937988236307E-003      2.009446507166E-003      2.082510242158E-003      2.157186678255E-003
                 2.233482615174E-003      2.311404423934E-003      2.390958055836E-003      2.472149051850E-003
                 2.554982552373E-003      2.639463307349E-003      2.725595686716E-003      2.813383691156E-003
                 2.902830963127E-003      2.993940798160E-003      3.086716156383E-003      3.181159674266E-003
                 3.277273676553E-003      3.375060188366E-003      3.474520947462E-003      3.575657416616E-003
                 3.678470796117E-003      3.782962036352E-003      3.889131850474E-003      3.996980727112E-003
                 4.106508943135E-003      4.217716576431E-003      4.330603518697E-003      4.445169488227E-003
                 4.561414042676E-003      4.679336591797E-003      4.798936410127E-003      4.920212649625E-003
                 5.043164352237E-003      5.167790462389E-003      5.294089839393E-003      5.422061269756E-003
                 5.551703479391E-003      5.683015145718E-003      5.815994909645E-003      5.950641387433E-003
                 6.086953182433E-003      6.224928896684E-003      6.364567142389E-003      6.505866553242E-003
                 6.648825795618E-003      6.793443579615E-003      6.939718669959E-003      7.087649896756E-003
                 7.237236166095E-003      7.388476470513E-003      7.541369899305E-003      7.695915648693E-003
                 7.852113031843E-003      8.009961488754E-003      8.169460595985E-003      8.330610076267E-003
                 8.493409807958E-003      8.657859834382E-003      8.823960373027E-003      8.991711824631E-003
                 9.161114782132E-003      9.332170039516E-003      9.504878600543E-003      9.679241687375E-003
                 9.855260749094E-003      1.003293747013E-002      1.021227377861E-002      1.039327185459E-002
                 1.057593413825E-002      1.076026333797E-002      1.094626243842E-002      1.113393470849E-002
                 1.132328370926E-002      1.151431330184E-002      1.170702765530E-002      1.190143125439E-002
                 1.209752890742E-002      1.229532575404E-002      1.249482727296E-002      1.269603928981E-002
                 1.289896798488E-002      1.310361990099E-002      1.331000195127E-002      1.351812142707E-002
                 1.372798600589E-002      1.393960375937E-002      1.415298316127E-002      1.436813309568E-002
                 1.458506286514E-002      1.480378219895E-002      1.502430126158E-002      1.524663066118E-002
                 1.547078145816E-002      1.569676517400E-002      1.592459380012E-002      1.615427980694E-002
                 1.638583615312E-002      1.661927629492E-002      1.685461419585E-002      1.709186433636E-002
                 1.733104172393E-002      1.757216190322E-002      1.781524096658E-002      1.806029556470E-002
                 1.830734291763E-002      1.855640082599E-002      1.880748768253E-002      1.906062248396E-002
                 1.931582484308E-002      1.957311500133E-002      1.983251384160E-002      2.009404290143E-002
                 2.035772438663E-002      2.062358118526E-002      2.089163688204E-002      2.116191577320E-002
                 2.143444288179E-002      2.170924397345E-002      2.198634557267E-002      2.226577497961E-002
                 2.254756028740E-002      2.283173040003E-002      2.311831505083E-002      2.340734482153E-002
                 2.369885116199E-002      2.399286641057E-002      2.428942381516E-002      2.458855755498E-002
                 2.489030276308E-002      2.519469554965E-002      2.550177302610E-002      2.581157332998E-002
                 2.612413565086E-002      2.643950025698E-002      2.675770852297E-002      2.707880295851E-002
                 2.740282723800E-002      2.772982623136E-002      2.805984603589E-002      2.839293400932E-002
                 2.872913880411E-002      2.906851040295E-002      2.941110015561E-002      2.975696081720E-002
                 3.010614658781E-002      3.045871315369E-002      3.081471772998E-002      3.117421910503E-002
                 3.153727768655E-002      3.190395554938E-002      3.227431648519E-002      3.264842605420E-002
                 3.302635163877E-002      3.340816249921E-002      3.379392983183E-002      3.418372682921E-002
                 3.457762874299E-002      3.497571294914E-002      3.537805901589E-002      3.578474877450E-002
                 3.619586639284E-002      3.661149845208E-002      3.703173402661E-002      3.745666476723E-002
                 3.788638498790E-002      3.832099175617E-002      3.876058498747E-002      3.920526754344E-002
                 3.965514533457E-002      4.011032742723E-002      4.057092615550E-002      4.103705723787E-002
                 4.150883989913E-002      4.198639699776E-002      4.246985515909E-002      4.295934491439E-002
                 4.345500084648E-002      4.395696174197E-002      4.446537075055E-002      4.498037555178E-002
                 4.550212852972E-002      4.603078695590E-002      4.656651318091E-002      4.710947483543E-002
                 4.765984504082E-002      4.821780263022E-002      4.878353238038E-002      4.935722525518E-002
                 4.993907866131E-002      5.052929671681E-002      5.112809053345E-002      5.173567851351E-002
                 5.235228666200E-002      5.297814891523E-002      5.361350748666E-002      5.425861323119E-002
                 5.491372602899E-002      5.557911519014E-002      5.625505988135E-002      5.694184957622E-002
                 5.763978453055E-002      5.834917628434E-002      5.907034819227E-002      5.980363598447E-002
                 6.054938835975E-002      6.130796761337E-002      6.207975030178E-002      6.286512794693E-002
                 6.366450778284E-002      6.447831354742E-002      6.530698632289E-002      6.615098542813E-002
                 6.701078936691E-002      6.788689683598E-002      6.877982779761E-002      6.969012462126E-002
                 7.061835329987E-002      7.156510474627E-002      7.253099617610E-002      7.351667258399E-002
                 7.452280832041E-002      7.555010877733E-002      7.659931219144E-002      7.767119157482E-002
                 7.876655678341E-002      7.988625673513E-002      8.103118179030E-002      8.220226630840E-002
                 8.340049139668E-002      8.462688786750E-002      8.588253942317E-002      8.716858608911E-002
                 8.848622791791E-002      8.983672898987E-002      9.122142173791E-002      9.264171162795E-002
                 9.409908222940E-002      9.559510071408E-002      9.713142382668E-002      9.870980437420E-002
                 1.003320982882E-001      1.020002723194E-001      1.037164124320E-001      1.054827329725E-001
                 1.073015866985E-001      1.091754757628E-001      1.111070637598E-001      1.130991889576E-001
                 1.151548788526E-001      1.172773662053E-001      1.194701067336E-001      1.217367986702E-001
                 1.240814044136E-001      1.265081745429E-001      1.290216744999E-001      1.316268142917E-001
                 1.343288816212E-001      1.371335789152E-001      1.400470647952E-001      1.430760006273E-001
                 1.462276028904E-001      1.495097022291E-001      1.529308102106E-001      1.565001949813E-001
                 1.602279672407E-001      1.641251782117E-001      1.682039316070E-001      1.724775119800E-001
                 1.769605323290E-001      1.816691044100E-001      1.866210359404E-001      1.918360597819E-001
                 1.973361013209E-001      2.031455916853E-001      2.092918362349E-001      2.158054500496E-001
                 2.227208750735E-001      2.300769973485E-001      2.379178876979E-001      2.462936956515E-001
                 2.552617349299E-001      2.648878101434E-001      2.752478496574E-001      2.864299303382E-001
                 2.985368084953E-001      3.116891110568E-001      3.260293970810E-001      3.417273796818E-001
                 3.589867145532E-001      3.780539322116E-001      3.992303476860E-001      4.228881735797E-001
                 4.494926755989E-001      4.796331902522E-001      5.140674357628E-001      5.537862744499E-001
                 6.001108557850E-001      6.548427474736E-001      7.205041436746E-001      8.007382143021E-001
                 9.010097129487E-001      1.029906110819E+000      1.201739856345E+000      1.442273367959E+000
                 1.803031432362E+000      2.404238655987E+000      3.606565957123E+000      7.213353039263E+000
       </PP_RAB>
   </PP_MESH>
<PP_LOCAL type="real" size="400" columns="4">
            -1.410253147718E+001     -1.410253147718E+001     -1.410253147718E+001     -1.410253147718E+001
            -1.410253147718E+001     -1.410253147718E+001     -1.410253147718E+001     -1.410253147718E+001
            -1.410253147718E+001     -1.410253147720E+001     -1.410253147723E+001     -1.410253147730E+001
            -1.410253147744E+001     -1.410253147773E+001     -1.410253147828E+001     -1.410253147927E+001
            -1.410253148101E+001     -1.410253148395E+001     -1.410253148879E+001     -1.410253149653E+001
            -1.410253150862E+001     -1.410253152712E+001     -1.410253155487E+001     -1.410253159576E+001
            -1.410253165503E+001     -1.410253173966E+001     -1.410253185883E+001     -1.410253202447E+001
            -1.410253225195E+001     -1.410253256090E+001     -1.410253297611E+001     -1.410253352869E+001
            -1.410253425737E+001     -1.410253520999E+001     -1.410253644526E+001     -1.410253803480E+001
            -1.410254006538E+001     -1.410254264158E+001     -1.410254588876E+001     -1.410254995637E+001
            -1.410255502175E+001     -1.410256129432E+001     -1.410256902031E+001     -1.410257848797E+001
            -1.410259003343E+001     -1.410260404703E+001     -1.410262098048E+001     -1.410264135457E+001
            -1.410266576771E+001     -1.410269490525E+001     -1.410272954960E+001     -1.410277059127E+001
            -1.410281904083E+001     -1.410287604188E+001     -1.410294288502E+001     -1.410302102290E+001
            -1.410311208644E+001     -1.410321790222E+001     -1.410334051105E+001     -1.410348218791E+001
            -1.410364546316E+001     -1.410383314511E+001     -1.410404834406E+001     -1.410429449778E+001
            -1.410457539852E+001     -1.410489522155E+001     -1.410525855526E+001     -1.410567043299E+001
            -1.410613636644E+001     -1.410666238077E+001     -1.410725505151E+001     -1.410792154311E+001
            -1.410866964939E+001     -1.410950783565E+001     -1.411044528271E+001     -1.411149193270E+001
            -1.411265853665E+001     -1.411395670400E+001     -1.411539895380E+001     -1.411699876780E+001
            -1.411877064530E+001     -1.412073015968E+001     -1.412289401676E+001     -1.412528011475E+001
            -1.412790760578E+001     -1.413079695907E+001     -1.413397002548E+001     -1.413745010346E+001
            -1.414126200627E+001     -1.414543213038E+001     -1.414998852481E+001     -1.415496096140E+001
            -1.416038100577E+001     -1.416628208872E+001     -1.417269957803E+001     -1.417967085027E+001
            -1.418723536236E+001     -1.419543472281E+001     -1.420431276202E+001     -1.421391560160E+001
            -1.422429172208E+001     -1.423549202887E+001     -1.424756991583E+001     -1.426058132603E+001
            -1.427458480929E+001     -1.428964157582E+001     -1.430581554548E+001     -1.432317339193E+001
            -1.434178458105E+001     -1.436172140292E+001     -1.438305899648E+001     -1.440587536624E+001
            -1.443025138989E+001     -1.445627081617E+001     -1.448402025181E+001     -1.451358913657E+001
            -1.454506970532E+001     -1.457855693597E+001     -1.461414848210E+001     -1.465194458896E+001
            -1.469204799169E+001     -1.473456379422E+001     -1.477959932771E+001     -1.482726398683E+001
            -1.487766904269E+001     -1.493092743075E+001     -1.498715351231E+001     -1.504646280809E+001
            -1.510897170224E+001     -1.517479711555E+001     -1.524405614615E+001     -1.531686567639E+001
            -1.539334194458E+001     -1.547360008018E+001     -1.555775360136E+001     -1.564591387383E+001
            -1.573818952999E+001     -1.583468584766E+001     -1.593550408788E+001     -1.604074079141E+001
            -1.615048703386E+001     -1.626482763974E+001     -1.638384035595E+001     -1.650759498569E+001
            -1.663615248405E+001     -1.676956401720E+001     -1.690786998729E+001     -1.705109902606E+001
            -1.719926696030E+001     -1.735237575332E+001     -1.751041242692E+001     -1.767334796924E+001
            -1.784113623429E+001     -1.801371284013E+001     -1.819099407301E+001     -1.837287580564E+001
            -1.855923243885E+001     -1.874991587614E+001     -1.894475454192E+001     -1.914355245459E+001
            -1.934608836645E+001     -1.955211498330E+001     -1.976135827675E+001     -1.997351690321E+001
            -2.018826174373E+001     -2.040523557918E+001     -2.062405291555E+001     -2.084429997404E+001
            -2.106553486059E+001     -2.128728792905E+001     -2.150906235179E+001     -2.173033491054E+001
            -2.195055701954E+001     -2.216915599145E+001     -2.238553655526E+001     -2.259908263329E+001
            -2.280915938244E+001     -2.301511550236E+001     -2.321628581048E+001     -2.341199408091E+001
            -2.360155614091E+001     -2.378428321520E+001     -2.395948550463E+001     -2.412647598189E+001
            -2.428457438292E+001     -2.443311136870E+001     -2.457143282784E+001     -2.469890428651E+001
            -2.481491538840E+001     -2.491888440347E+001     -2.501026272125E+001     -2.508853928108E+001
            -2.515324488952E+001     -2.520395637297E+001     -2.524030051246E+001     -2.526195770703E+001
            -2.526866531231E+001     -2.526022060241E+001     -2.523648330499E+001     -2.519737766296E+001
            -2.514289398009E+001     -2.507308961300E+001     -2.498808937836E+001     -2.488808535074E+001
            -2.477333603477E+001     -2.464416490373E+001     -2.450095830587E+001     -2.434416274936E+001
            -2.417428158680E+001     -2.399187113004E+001     -2.379753623598E+001     -2.359192541320E+001
            -2.337572550845E+001     -2.314965603957E+001     -2.291446324862E+001     -2.267091395437E+001
            -2.241978928775E+001     -2.216187839602E+001     -2.189797220269E+001     -2.162885730902E+001
            -2.135531012018E+001     -2.107809127481E+001     -2.079794045040E+001     -2.051557160892E+001
            -2.023166873848E+001     -1.994688213596E+001     -1.966182526465E+001     -1.937707220914E+001