<UPF version="2.0.1">
<PP_INFO>
Generated in analytical, separable form
Author: Goedecker/Hartwigsen/Hutter/Teter
Generation date: Phys.Rev.B58, 3641 (1998); B54, 1703 (1996)
Pseudopotential type: NC
Element: Ba
Functional: SLA-PW-PBX-PBC

Suggested minimum cutoff for wavefunctions:   0. Ry
Suggested minimum cutoff for charge density:   0. Ry
The Pseudo was generated with a Non-Relativistic Calculation
Local Potential: unknown format, L component and cutoff radius: -3   0.0000

Valence configuration:
nl pn  l   occ       Rcut    Rcut US       E pseu

Generation configuration: not available.
Converted from CPMD format using cpmd2upf v.5.0.1 - PG 10Jul2012
Atomic orbitals could not be generated by ld1.x - use with care
</PP_INFO>
<!--                               -->
<!-- END OF HUMAN READABLE SECTION -->
<!--                               -->
<PP_HEADER generated="Generated in analytical, separable form"
author="Goedecker/Hartwigsen/Hutter/Teter"
date="Phys.Rev.B58, 3641 (1998); B54, 1703 (1996)"
comment="Atomic orbitals could not be generated by ld1.x - use with care"
element="Ba"
pseudo_type="NC"
relativistic="no"
is_ultrasoft="F"
is_paw="F"
is_coulomb="F"
has_so="F"
has_wfc="F"
has_gipaw="F"
paw_as_gipaw="F"
core_correction="F"
functional="SLA-PW-PBX-PBC"
z_valence="1.000000000000000E+001"
total_psenergy="0.000000000000000E+000"
wfc_cutoff="0.000000000000000E+000"
rho_cutoff="0.000000000000000E+000"
l_max="3"
l_max_rho="0"
l_local="-3"
mesh_size="1251"
number_of_wfc="0"
number_of_proj="6"/>
<PP_MESH dx="1.250000000000000E-002" mesh="1251" xmin="-7.000000000000000E+000" rmax="9.944933408153578E+001"
zmesh="5.600000000000000E+001">
<PP_R type="real" size="1251" columns="4">
1.628360652775922E-005  1.648842908337540E-005  1.669582798958182E-005  1.690583565287953E-005
1.711848488739321E-005  1.733380891999837E-005  1.755184139551319E-005  1.777261638195556E-005
1.799616837586626E-005  1.822253230769919E-005  1.845174354727923E-005  1.868383790932890E-005
1.891885165906447E-005  1.915682151786244E-005  1.939778466899746E-005  1.964177876345211E-005
1.988884192580006E-005  2.013901276016308E-005  2.039233035624299E-005  2.064883429542960E-005
2.090856465698526E-005  2.117156202430737E-005  2.143786749126966E-005  2.170752266864312E-005
2.198056969059787E-005  2.225705122128660E-005  2.253701046151097E-005  2.282049115547187E-005
2.310753759760443E-005  2.339819463949929E-005  2.369250769691056E-005  2.399052275685226E-005
2.429228638478382E-005  2.459784573188602E-005  2.490724854242855E-005  2.522054316123003E-005
2.553777854121204E-005  2.585900425104814E-005  2.618427048290898E-005  2.651362806030512E-005
2.684712844602808E-005  2.718482375019163E-005  2.752676673837411E-005  2.787301083986308E-005
2.822361015600387E-005  2.857861946865293E-005  2.893809424873762E-005  2.930209066492368E-005
2.967066559239168E-005  3.004387662172395E-005  3.042178206790311E-005  3.080444097942397E-005
3.119191314751999E-005  3.158425911550573E-005  3.198154018823696E-005  3.238381844168955E-005
3.279115673265906E-005  3.320361870858216E-005  3.362126881748174E-005  3.404417231803708E-005
3.447239528978052E-005  3.490600464342262E-005  3.534506813130708E-005  3.578965435799713E-005
3.623983279099525E-005  3.669567377159748E-005  3.715724852588445E-005  3.762462917585061E-005
3.809788875067336E-005  3.857710119812419E-005  3.906234139612295E-005  3.955368516443780E-005
4.005120927653220E-005  4.055499147156084E-005  4.106511046651671E-005  4.158164596853061E-005
4.210467868732559E-005  4.263429034782810E-005  4.317056370293756E-005  4.371358254645684E-005
4.426343172618497E-005  4.482019715717497E-005  4.538396583515818E-005  4.595482585013750E-005
4.653286640015176E-005  4.711817780521289E-005  4.771085152141876E-005  4.831098015524334E-005
4.891865747800658E-005  4.953397844052658E-005  5.015703918795558E-005  5.078793707480299E-005
5.142677068014719E-005  5.207363982303871E-005  5.272864557809726E-005  5.339189029130465E-005
5.406347759599670E-005  5.474351242905612E-005  5.543210104730908E-005  5.612935104412822E-005
5.683537136624405E-005  5.755027233076832E-005  5.827416564243122E-005  5.900716441103539E-005
5.974938316912985E-005  6.050093788990556E-005  6.126194600531669E-005  6.203252642442952E-005
6.281279955200229E-005  6.360288730729874E-005  6.440291314313805E-005  6.521300206518471E-005
6.603328065148093E-005  6.686387707222465E-005  6.770492110979656E-005  6.855654417903864E-005
6.941887934778804E-005  7.029206135766935E-005  7.117622664514804E-005  7.207151336284925E-005
7.297806140114405E-005  7.389601241000779E-005  7.482550982115321E-005  7.576669887044179E-005
7.671972662057749E-005  7.768474198408516E-005  7.866189574657867E-005  7.965134059032146E-005
8.065323111808332E-005  8.166772387729773E-005  8.269497738452225E-005  8.373515215020733E-005
8.478841070377638E-005  8.585491761902125E-005  8.693483953981720E-005  8.802834520616163E-005
8.913560548053959E-005  9.025679337462168E-005  9.139208407629742E-005  9.254165497704865E-005
9.370568569966758E-005  9.488435812632278E-005  9.607785642697893E-005  9.728636708817373E-005
9.851007894215663E-005  9.974918319639464E-005  1.010038734634484E-004  1.022743457912247E-004
1.035607986936098E-004  1.048634331814866E-004  1.061824527941445E-004  1.075180636310814E-004
1.088704743842078E-004  1.102398963704555E-004  1.116265435647957E-004  1.130306326336741E-004
1.144523829688640E-004  1.158920167217480E-004  1.173497588380289E-004  1.188258370928781E-004
1.203204821265262E-004  1.218339274803005E-004  1.233664096331166E-004  1.249181680384289E-004
1.264894451616450E-004  1.280804865180125E-004  1.296915407109802E-004  1.313228594710435E-004
1.329746976950776E-004  1.346473134861655E-004  1.363409681939279E-004  1.380559264553584E-004
1.397924562361745E-004  1.415508288726876E-004  1.433313191141992E-004  1.451342051659323E-004
1.469597687325005E-004  1.488082950619252E-004  1.506800729902060E-004  1.525753949864525E-004
1.544945571985827E-004  1.564378594995969E-004  1.584056055344332E-004  1.603981027674130E-004
1.624156625302824E-004  1.644586000708597E-004  1.665272346022915E-004  1.686218893529323E-004
1.707428916168485E-004  1.728905728049586E-004  1.750652684968184E-004  1.772673184930538E-004
1.794970668684569E-004  1.817548620257478E-004  1.840410567500132E-004  1.863560082638304E-004
1.887000782830831E-004  1.910736330734809E-004  1.934770435077886E-004  1.959106851237764E-004
1.983749381828983E-004  2.008701877297083E-004  2.033968236520246E-004  2.059552407418506E-004
2.085458387570615E-004  2.111690224838682E-004  2.138252018000647E-004  2.165147917390732E-004
2.192382125547937E-004  2.219958897872693E-004  2.247882543291785E-004  2.276157424931619E-004
2.304787960799977E-004  2.333778624476338E-004  2.363133945810880E-004  2.392858511632291E-004
2.422956966464452E-004  2.453434013252168E-004  2.484294414096005E-004  2.515542990996379E-004
2.547184626607010E-004  2.579224264997836E-004  2.611666912427540E-004  2.644517638125788E-004
2.677781575085304E-004  2.711463920863919E-004  2.745569938396685E-004  2.780104956818230E-004
2.815074372295446E-004  2.850483648870645E-004  2.886338319315335E-004  2.922643985994719E-004
2.959406321743081E-004  2.996631070750173E-004  3.034324049458762E-004  3.072491147473461E-004
3.111138328480985E-004  3.150271631181993E-004  3.189897170234652E-004  3.230021137210053E-004
3.270649801559675E-004  3.311789511594980E-004  3.353446695479359E-004  3.395627862232546E-004
3.438339602747666E-004  3.481588590821070E-004  3.525381584195139E-004  3.569725425614184E-004
3.614627043893641E-004  3.660093455002725E-004  3.706131763160668E-004  3.752749161946791E-004
3.799952935424496E-004  3.847750459279423E-004  3.896149201971924E-004  3.945156725904008E-004
3.994780688601000E-004  4.045028843908030E-004  4.095909043201595E-004  4.147429236616352E-004
4.199597474287341E-004  4.252421907607836E-004  4.305910790503013E-004  4.360072480719649E-004
4.414915441132036E-004  4.470448241064312E-004  4.526679557629454E-004  4.583618177085077E-004
4.641272996206312E-004  4.699653023675949E-004  4.758767381492051E-004  4.818625306393301E-004
4.879236151302245E-004  4.940609386786711E-004  5.002754602539611E-004  5.065681508877339E-004
5.129399938257041E-004  5.193919846812942E-004  5.259251315912016E-004  5.325404553729234E-004
5.392389896842590E-004  5.460217811848232E-004  5.528898896995873E-004  5.598443883844802E-004
5.668863638940705E-004  5.740169165513584E-004  5.812371605197042E-004  5.885482239769172E-004
5.959512492915371E-004  6.034473932013314E-004  6.110378269940363E-004  6.187237366903754E-004
6.265063232293756E-004  6.343868026560172E-004  6.423664063112441E-004  6.504463810243613E-004
6.586279893078574E-004  6.669125095546718E-004  6.753012362379479E-004  6.837954801132975E-004
6.923965684236073E-004  7.011058451064253E-004  7.099246710039521E-004  7.188544240756759E-004
7.278964996136826E-004  7.370523104606705E-004  7.463232872307128E-004  7.557108785327914E-004
7.652165511971462E-004  7.748417905044710E-004  7.845881004179897E-004  7.944570038184558E-004
8.044500427421040E-004  8.145687786215966E-004  8.248147925300021E-004  8.351896854278389E-004
8.456950784132309E-004  8.563326129752049E-004  8.671039512501781E-004  8.780107762816711E-004
8.890547922832847E-004  9.002377249049889E-004  9.115613215027574E-004  9.230273514115962E-004
9.346376062220073E-004  9.463939000599255E-004  9.582980698701809E-004  9.703519757035267E-004
9.825575010072719E-004  9.949165529195790E-004  1.007431062567453E-003  1.020102985368487E-003
1.032934301336401E-003  1.045927015390420E-003  1.059083157668549E-003  1.072404783844785E-003
1.085893975450321E-003  1.099552840198790E-003  1.113383512315597E-003  1.127388152871400E-003
1.141568950119779E-003  1.155928119839153E-003  1.170467905679007E-003  1.185190579510457E-003
1.200098441781246E-003  1.215193821875183E-003  1.230479078476118E-003  1.245956599936494E-003
1.261628804650529E-003  1.277498141432094E-003  1.293567089897348E-003  1.309838160852181E-003
1.326313896684534E-003  1.342996871761650E-003  1.359889692832328E-003  1.376994999434228E-003
1.394315464306307E-003  1.411853793806441E-003  1.429612728334295E-003  1.447595042759523E-003
1.465803546855336E-003  1.484241085737546E-003  1.502910540309114E-003  1.521814827710301E-003
1.540956901774474E-003  1.560339753489650E-003  1.579966411465845E-003  1.599839942408298E-003
1.619963451596652E-003  1.640340083370160E-003  1.660973021618992E-003  1.681865490281727E-003
1.703020753849101E-003  1.724442117874086E-003  1.746132929488395E-003  1.768096577925470E-003
1.790336495050067E-003  1.812856155894484E-003  1.835659079201543E-003  1.858748827974405E-003
1.882129010033293E-003  1.905803278579218E-003  1.929775332764809E-003  1.954048918272302E-003
1.978627827898820E-003  2.003515902148996E-003  2.028717029835067E-003  2.054235148684508E-003
2.080074245955303E-003  2.106238359058974E-003  2.132731576191423E-003  2.159558036971727E-003
2.186721933088963E-003  2.214227508957165E-003  2.242079062378523E-003  2.270280945214922E-003
2.298837564067933E-003  2.327753380967352E-003  2.357032914068397E-003  2.386680738357687E-003
2.416701486368085E-003  2.447099848902544E-003  2.477880575767059E-003  2.509048476512824E-003
2.540608421187743E-003  2.572565341097381E-003  2.604924229575489E-003  2.637690142764230E-003
2.670868200404198E-003  2.704463586634404E-003  2.738481550802294E-003  2.772927408283982E-003
2.807806541314780E-003  2.843124399830184E-003  2.878886502317443E-003  2.915098436677829E-003
2.951765861099760E-003  2.988894504942903E-003  3.026490169633395E-003  3.064558729570335E-003
3.103106133043664E-003  3.142138403163599E-003  3.181661638801759E-003  3.221682015544122E-003
3.262205786655977E-003  3.303239284059006E-003  3.344788919320663E-003  3.386861184655988E-003
3.429462653942038E-003  3.472599983745064E-003  3.516279914360609E-003  3.560509270866700E-003
3.605294964190276E-003  3.650643992187037E-003  3.696563440734869E-003  3.743060484841034E-003
3.790142389763271E-003  3.837816512145012E-003  3.886090301164874E-003  3.934971299700605E-003
3.984467145507676E-003  4.034585572412696E-003  4.085334411521831E-003  4.136721592444445E-003
4.188755144532102E-003  4.241443198133182E-003  4.294793985863255E-003  4.348815843891443E-003
4.403517213242974E-003  4.458906641118100E-003  4.514992782227617E-003  4.571784400145181E-003
4.629290368676636E-003  4.687519673246559E-003  4.746481412302261E-003  4.806184798735427E-003
4.866639161321656E-003  4.927853946178093E-003  4.989838718239418E-003  5.052603162752374E-003
5.116157086789109E-003  5.180510420779562E-003  5.245673220063088E-003  5.311655666459655E-003
5.378468069860753E-003  5.446120869840345E-003  5.514624637286071E-003  5.583990076050962E-003
5.654228024625952E-003  5.725349457833406E-003  5.797365488541961E-003  5.870287369402933E-003
5.944126494608565E-003  6.018894401672400E-003  6.094602773232032E-003  6.171263438874546E-003
6.248888376984919E-003  6.327489716617658E-003  6.407079739391995E-003  6.487670881410917E-003
6.569275735204329E-003  6.651907051696662E-003  6.735577742199233E-003  6.820300880427662E-003
6.906089704544667E-003  6.992957619228556E-003  7.080918197767732E-003  7.169985184181550E-003
7.260172495367844E-003  7.351494223277475E-003  7.443964637116224E-003  7.537598185574386E-003
7.632409499084407E-003  7.728413392106918E-003  7.825624865445526E-003  7.924059108590715E-003
8.023731502093246E-003  8.124657619967387E-003  8.226853232124392E-003  8.330334306836580E-003
8.435117013232409E-003  8.541217723822932E-003  8.648653017060047E-003  8.757439679926898E-003
8.867594710560887E-003  8.979135320909663E-003  9.092078939420526E-003  9.206443213763649E-003
9.322246013589575E-003  9.439505433321383E-003  9.558239794981971E-003  9.678467651056916E-003
9.800207787393333E-003  9.923479226135207E-003  1.004830122869564E-002  1.017469329876649E-002
1.030267518536584E-002  1.043226688592386E-002  1.056348864940741E-002  1.069636097948403E-002
1.083090463772560E-002  1.096714064685246E-002  1.110509029401822E-002  1.124477513413590E-002
1.138621699324596E-002  1.152943797192665E-002  1.167446044874728E-002  1.182130708376490E-002
1.197000082206499E-002  1.212056489734669E-002  1.227302283555308E-002  1.242739845854718E-002
1.258371588783417E-002  1.274199954833041E-002  1.290227417217986E-002  1.306456480261861E-002
1.322889679788783E-002  1.339529583519611E-002  1.356378791473159E-002  1.373439936372448E-002
1.390715684056081E-002  1.408208733894780E-002  1.425921819213174E-002  1.443857707716880E-002
1.462019201924968E-002  1.480409139607858E-002  1.499030394230728E-002  1.517885875402497E-002
1.536978529330461E-002  1.556311339280640E-002  1.575887326043921E-002  1.595709548408064E-002
1.615781103635643E-002  1.636105127947996E-002  1.656684797015274E-002  1.677523326452636E-002
1.698623972322704E-002  1.719990031644325E-002  1.741624842907738E-002  1.763531786596217E-002
1.785714285714287E-002  1.808175806322562E-002  1.830919858079338E-002  1.853949994788974E-002
1.877269814957187E-002  1.900882962353321E-002  1.924793126579700E-002  1.949004043648129E-002
1.973519496563658E-002  1.998343315915680E-002  2.023479380476476E-002  2.048931617807273E-002
2.074704004871935E-002  2.100800568658377E-002  2.127225386807783E-002  2.153982588251752E-002
2.181076353857447E-002  2.208510917080866E-002  2.236290564628330E-002  2.264419637126286E-002
2.292902529799539E-002  2.321743693158021E-002  2.350947633692183E-002  2.380518914577149E-002
2.410462156385721E-002  2.440782037810352E-002  2.471483296394200E-002  2.502570729271382E-002
2.534049193916532E-002  2.565923608903795E-002  2.598198954675360E-002  2.630880274319672E-002
2.663972674359413E-002  2.697481325549416E-002  2.731411463684606E-002  2.765768390418096E-002
2.800557474089588E-002  2.835784150564186E-002  2.871453924081756E-002  2.907572368116983E-002
2.944145126250230E-002  2.981177913049363E-002  3.018676514962665E-002  3.056646791222973E-002
3.095094674763207E-002  3.134026173143391E-002  3.173447369489356E-002  3.213364423443231E-002
3.253783572125910E-002  3.294711131111609E-002  3.336153495414684E-002  3.378117140488875E-002
3.420608623239101E-002  3.463634583045991E-002  3.507201742803299E-002  3.551316909968380E-002
3.595986977625853E-002  3.641218925564672E-002  3.687019821368727E-002  3.733396821521173E-002
3.780357172522635E-002  3.827908212023500E-002  3.876057369970435E-002  3.924812169767326E-002
3.974180229450837E-002  4.024169262880731E-002  4.074787080945187E-002  4.126041592781259E-002
4.177940807010700E-002  4.230492832991323E-002  4.283705882084105E-002  4.337588268936231E-002
4.392148412780269E-002  4.447394838749700E-002  4.503336179210981E-002  4.559981175112372E-002
4.617338677349727E-002  4.675417648149468E-002  4.734227162468942E-002  4.793776409414413E-002
4.854074693676869E-002  4.915131436985903E-002  4.976956179581878E-002  5.039558581706610E-002
5.102948425112795E-002  5.167135614592432E-002  5.232130179524469E-002  5.297942275441908E-002
5.364582185618633E-002  5.432060322676188E-002  5.500387230210773E-002  5.569573584440703E-002
5.639630195874588E-002  5.710568011000495E-002  5.782398113996361E-002  5.855131728461920E-002
5.928780219172409E-002  6.003355093854340E-002  6.078868004983608E-002  6.155330751606208E-002
6.232755281181862E-002  6.311153691450841E-002  6.390538232324251E-002  6.470921307798114E-002
6.552315477891511E-002  6.634733460609117E-002  6.718188133928414E-002  6.802692537811897E-002
6.888259876244600E-002  6.974903519297239E-002  7.062637005215319E-002  7.151474042534511E-002
7.241428512222636E-002  7.332514469848597E-002  7.424746147778589E-002  7.518137957399933E-002
7.612704491372892E-002  7.708460525910797E-002  7.805421023088857E-002  7.903601133182028E-002
8.003016197032263E-002  8.103681748445545E-002  8.205613516619091E-002  8.308827428599060E-002
8.413339611769186E-002  8.519166396370724E-002  8.626324318054072E-002  8.734830120462513E-002
8.844700757848424E-002  8.955953397722431E-002  9.068605423535862E-002  9.182674437396943E-002
9.298178262821163E-002  9.415134947516239E-002  9.533562766202106E-002  9.653480223466374E-002
9.774906056655717E-002  9.897859238803618E-002  1.002235898159493E-001  1.014842473836776E-001
1.027607620715310E-001  1.040533333375264E-001  1.053621631485539E-001  1.066874560119344E-001
1.080294190073741E-001  1.093882618193212E-001  1.107641967697298E-001  1.121574388512351E-001
1.135682057607471E-001  1.149967179334654E-001  1.164431985773235E-001  1.179078737078648E-001
1.193909721835584E-001  1.208927257415586E-001  1.224133690339140E-001  1.239531396642328E-001
1.255122782248089E-001  1.270910283342143E-001  1.286896366753656E-001  1.303083530340685E-001
1.319474303380474E-001  1.336071246964658E-001  1.352876954399437E-001  1.369894051610792E-001
1.387125197554782E-001  1.404573084633017E-001  1.422240439113353E-001  1.440130021555870E-001
1.458244627244224E-001  1.476587086622406E-001  1.495160265737012E-001  1.513967066685067E-001
1.533010428067481E-001  1.552293325448216E-001  1.571818771819216E-001  1.591589818071204E-001
1.611609553470380E-001  1.631881106141130E-001  1.652407643554803E-001  1.673192373024631E-001
1.694238542206880E-001  1.715549439608305E-001  1.737128395099980E-001  1.758978780437605E-001
1.781104009788344E-001  1.803507540264296E-001  1.826192872462679E-001  1.849163551012803E-001
1.872423165129925E-001  1.895975349176073E-001  1.919823783227921E-001  1.943972193651811E-001
1.968424353686001E-001  1.993184084030245E-001  2.018255253442784E-001  2.043641779344844E-001
2.069347628432749E-001  2.095376817297717E-001  2.121733413053465E-001  2.148421533971703E-001
2.175445350125621E-001  2.202809084041475E-001  2.230517011358359E-001  2.258573461496292E-001
2.286982818332686E-001  2.315749520887347E-001  2.344878064016076E-001  2.374372999112998E-001
2.404238934821732E-001  2.434480537755494E-001  2.465102533226268E-001  2.496109705983150E-001
2.527506900959965E-001  2.559299024032310E-001  2.591491042784094E-001  2.624087987283741E-001
2.657094950870151E-001  2.690517090948534E-001  2.724359629796280E-001  2.758627855378933E-001
2.793327122176461E-001  2.828462852019897E-001  2.864040534938513E-001  2.900065730017651E-001
2.936544066267333E-001  2.973481243501813E-001  3.010883033230186E-001  3.048755279558190E-001
3.087103900101366E-001  3.125934886909695E-001  3.165254307403866E-001  3.205068305323330E-001
3.245383101686262E-001  3.286204995761617E-001  3.327540366053396E-001  3.369395671297302E-001
3.411777451469939E-001  3.454692328810682E-001  3.498147008856429E-001  3.542148281489345E-001
3.586703021997799E-001  3.631818192150646E-001  3.677500841285006E-001  3.723758107407753E-001
3.770597218310826E-001  3.818025492700599E-001  3.866050341341441E-001  3.914679268213656E-001
3.963919871686009E-001  4.013779845702969E-001  4.064266980986918E-001  4.115389166255463E-001
4.167154389454057E-001  4.219570739004148E-001  4.272646405066992E-001  4.326389680823391E-001
4.380808963769529E-001  4.435912757029080E-001  4.491709670681853E-001  4.548208423109124E-001
4.605417842355906E-001  4.663346867510353E-001  4.722004550100500E-001  4.781400055508596E-001
4.841542664403198E-001  4.902441774189306E-001  4.964106900476729E-001  5.026547678566903E-001
5.089773864958446E-001  5.153795338871613E-001  5.218622103791956E-001  5.284264289033388E-001
5.350732151320897E-001  5.418036076393202E-001  5.486186580625524E-001  5.555194312672799E-001
5.625070055133563E-001  5.695824726234735E-001  5.767469381537624E-001  5.840015215665388E-001
5.913473564052201E-001  5.987855904714455E-001  6.063173860044209E-001  6.139439198625214E-001
6.216663837071794E-001  6.294859841890814E-001  6.374039431367124E-001  6.454214977472670E-001
6.535399007799645E-001  6.617604207517963E-001  6.700843421357324E-001  6.785129655614247E-001
6.870476080184312E-001  6.956896030619998E-001  7.044403010214385E-001  7.133010692111064E-001
7.222732921440610E-001  7.313583717483897E-001  7.405577275862638E-001  7.498727970757502E-001
7.593050357154072E-001  7.688559173117132E-001  7.785269342093487E-001  7.883195975243795E-001
7.982354373803725E-001  8.082760031474783E-001  8.184428636845267E-001  8.287376075841607E-001
8.391618434210590E-001  8.497172000032804E-001  8.604053266267649E-001  8.712278933330435E-001
8.821865911701824E-001  8.932831324570137E-001  9.045192510506904E-001  9.158967026176023E-001
9.274172649077048E-001  9.390827380322941E-001  9.508949447452794E-001  9.628557307279922E-001
9.749669648775765E-001  9.872305395990078E-001  9.996483711007885E-001  1.012222399694354E+000
1.024954590097254E+000  1.037846931740144E+000  1.050901439077632E+000  1.064120151903053E+000
1.077505135667179E+000  1.091058481800953E+000  1.104782308042285E+000  1.118678758766944E+000
1.132750005323631E+000  1.146998246373248E+000  1.161425708232447E+000  1.176034645221496E+000
1.190827340016522E+000  1.205806104006181E+000  1.220973277652824E+000  1.236331230858190E+000
1.251882363333713E+000  1.267629104975481E+000  1.283573916243912E+000  1.299719288548209E+000
1.316067744635640E+000  1.332621838985732E+000  1.349384158209405E+000  1.366357321453141E+000
1.383543980808230E+000  1.400946821725163E+000  1.418568563433239E+000  1.436411959365452E+000
1.454479797588717E+000  1.472774901239518E+000  1.491300128965023E+000  1.510058375369751E+000
1.529052571467869E+000  1.548285685141159E+000  1.567760721602765E+000  1.587480723866756E+000
1.607448773223605E+000  1.627667989721651E+000  1.648141532654605E+000  1.668872601055208E+000
1.689864434195074E+000  1.711120312090838E+000  1.732643556016669E+000  1.754437529023215E+000
1.776505636463105E+000  1.798851326523020E+000  1.821478090762496E+000  1.844389464659480E+000
1.867589028162754E+000  1.891080406251320E+000  1.914867269500796E+000  1.938953334656959E+000
1.963342365216493E+000  1.988038172015042E+000  2.013044613822665E+000  2.038365597946769E+000
2.064005080842639E+000  2.089967068731641E+000  2.116255618227203E+000  2.142874836968669E+000
2.169828884263124E+000  2.197121971735297E+000  2.224758363985633E+000  2.252742379256646E+000
2.281078390107659E+000  2.309770824098017E+000  2.338824164478905E+000  2.368242950893869E+000
2.398031780088135E+000  2.428195306626875E+000  2.458738243622477E+000  2.489665363470988E+000
2.520981498597803E+000  2.552691542212750E+000  2.584800449074661E+000  2.617313236265557E+000
2.650234983974585E+000  2.683570836291803E+000  2.717326002011958E+000  2.751505755448371E+000
2.786115437257056E+000  2.821160455271207E+000  2.856646285346191E+000  2.892578472215149E+000
2.928962630355390E+000  2.965804444865645E+000  3.003109672354385E+000  3.040884141839306E+000
3.079133755658113E+000  3.117864490390791E+000  3.157082397793437E+000  3.196793605743872E+000
3.237004319199131E+000  3.277720821165000E+000  3.318949473677753E+000  3.360696718798223E+000
3.402969079618396E+000  3.445773161280653E+000  3.489115652009839E+000  3.533003324158314E+000
3.577443035264140E+000  3.622441729122591E+000  3.668006436871131E+000  3.714144278088047E+000
3.760862461904903E+000  3.808168288132965E+000  3.856069148403827E+000  3.904572527324361E+000
3.953686003646200E+000  4.003417251449948E+000  4.053774041344252E+000  4.104764241679983E+000
4.156395819779684E+000  4.208676843182475E+000  4.261615480904637E+000  4.315220004716013E+000
4.369498790432511E+000  4.424460319224827E+000  4.480113178943653E+000  4.536466065461554E+000
4.593527784031695E+000  4.651307250663697E+000  4.709813493516772E+000  4.769055654310395E+000
4.829042989752728E+000  4.889784872986974E+000  4.951290795055968E+000  5.013570366385170E+000
5.076633318284302E+000  5.140489504467912E+000  5.205148902595004E+000  5.270621615828081E+000
5.336917874411796E+000  5.404048037271425E+000  5.472022593631506E+000  5.540852164654757E+000
5.610547505101687E+000  5.681119505011037E+000  5.752579191401367E+000  5.824937729994072E+000
5.898206426958017E+000  5.972396730676166E+000  6.047520233534421E+000  6.123588673732935E+000
6.200613937120264E+000  6.278608059050514E+000  6.357583226263919E+000  6.437551778791031E+000
6.518526211880873E+000  6.600519177953373E+000  6.683543488576289E+000  6.767612116467070E+000
6.852738197519861E+000  6.938935032858014E+000  7.026216090912430E+000  7.114595009525999E+000
7.204085598084562E+000  7.294701839674652E+000  7.386457893268371E+000  7.479368095935785E+000
7.573446965085082E+000  7.668709200730970E+000  7.765169687791583E+000  7.862843498414266E+000
7.961745894330663E+000  8.061892329241349E+000  8.163298451230524E+000  8.265980105211064E+000
8.369953335400304E+000  8.475234387827008E+000  8.581839712869810E+000  8.689785967827635E+000
8.799090019522442E+000  8.909768946934680E+000  9.021840043871947E+000  9.135320821671147E+000
9.250229011934687E+000  9.366582569301078E+000  9.484399674250378E+000  9.603698735944945E+000
9.724498395105883E+000  9.846817526925701E+000  9.970675244017608E+000  1.009609089940188E+001
1.022308408952985E+001  1.035167465734583E+001  1.048188269538767E+001  1.061372854892622E+001
1.074723281914433E+001  1.088241636635585E+001  1.101930031326506E+001  1.115790604826717E+001
1.129825522879025E+001  1.144036978467930E+001  1.158427192162283E+001  1.172998412462250E+001
1.187752916150647E+001  1.202693008648695E+001  1.217821024376242E+001  1.233139327116525E+001
1.248650310385510E+001  1.264356397805893E+001  1.280260043485785E+001  1.296363732402181E+001
1.312669980789238E+001  1.329181336531441E+001  1.345900379561718E+001  1.362829722264557E+001
1.379972009884196E+001  1.397329920937957E+001  1.414906167634754E+001  1.432703496298892E+001
1.450724687799186E+001  1.468972557983469E+001  1.487449958118586E+001  1.506159775335899E+001
1.525104933082415E+001  1.544288391577575E+001  1.563713148275796E+001  1.583382238334836E+001
1.603298735090033E+001  1.623465750534523E+001  1.643886435805502E+001  1.664563981676586E+001
1.685501619056391E+001  1.706702619493353E+001  1.728170295686924E+001  1.749908002005186E+001
1.771919135008975E+001  1.794207133982609E+001  1.816775481471270E+001  1.839627703825169E+001
1.862767371750543E+001  1.886198100867581E+001  1.909923552275381E+001  1.933947433123993E+001
1.958273497193678E+001  1.982905545481438E+001  2.007847426794930E+001  2.033103038353857E+001
2.058676326398908E+001  2.084571286808368E+001  2.110791965722486E+001  2.137342460175685E+001
2.164226918736745E+001  2.191449542157012E+001  2.219014584026780E+001  2.246926351439922E+001
2.275189205666882E+001  2.303807562836138E+001  2.332785894624219E+001  2.362128728954426E+001
2.391840650704320E+001  2.421926302422122E+001  2.452390385052127E+001  2.483237658669223E+001
2.514472943222673E+001  2.546101119289236E+001  2.578127128835769E+001  2.610555975991425E+001
2.643392727829547E+001  2.676642515159417E+001  2.710310533327952E+001  2.744402043031486E+001
2.778922371137776E+001  2.813876911518318E+001  2.849271125891162E+001  2.885110544674313E+001
2.921400767849870E+001  2.958147465839042E+001  2.995356380388149E+001  3.033033325465792E+001
3.071184188171293E+001  3.109814929654569E+001  3.148931586047568E+001  3.188540269407441E+001
3.228647168671544E+001  3.269258550624486E+001  3.310380760877322E+001  3.352020224859063E+001
3.394183448820679E+001  3.436877020851694E+001  3.480107611909598E+001  3.523881976862196E+001
3.568206955543069E+001  3.613089473820323E+001  3.658536544678749E+001  3.704555269315631E+001
3.751152838250321E+001  3.798336532447762E+001  3.846113724456178E+001  3.894491879559020E+001
3.943478556941448E+001  3.993081410871468E+001  4.043308191895920E+001  4.094166748051533E+001
4.145665026091176E+001  4.197811072725568E+001  4.250613035880585E+001  4.304079165970395E+001
4.358217817186608E+001  4.413037448803620E+001  4.468546626500402E+001  4.524754023698904E+001