<UPF version="2.0.1">
<PP_INFO>
Generated in analytical, separable form
Author: Goedecker/Hartwigsen/Hutter/Teter
Generation date: Phys.Rev.B58, 3641 (1998); B54, 1703 (1996)
Pseudopotential type: NC
Element: Co
Functional: SLA-PW-PBX-PBC

Suggested minimum cutoff for wavefunctions:   0. Ry
Suggested minimum cutoff for charge density:   0. Ry
The Pseudo was generated with a Non-Relativistic Calculation
Local Potential: unknown format, L component and cutoff radius: -3   0.0000

Valence configuration:
nl pn  l   occ       Rcut    Rcut US       E pseu

Generation configuration: not available.
Converted from CPMD format using cpmd2upf v.5.0.1 - PG 10Jul2012
Atomic orbitals could not be generated by ld1.x - use with care
</PP_INFO>
<!--                               -->
<!-- END OF HUMAN READABLE SECTION -->
<!--                               -->
<PP_HEADER generated="Generated in analytical, separable form"
author="Goedecker/Hartwigsen/Hutter/Teter"
date="Phys.Rev.B58, 3641 (1998); B54, 1703 (1996)"
comment="Atomic orbitals could not be generated by ld1.x - use with care"
element="Co"
pseudo_type="NC"
relativistic="no"
is_ultrasoft="F"
is_paw="F"
is_coulomb="F"
has_so="F"
has_wfc="F"
has_gipaw="F"
paw_as_gipaw="F"
core_correction="F"
functional="SLA-PW-PBX-PBC"
z_valence="1.700000000000000E+001"
total_psenergy="0.000000000000000E+000"
wfc_cutoff="0.000000000000000E+000"
rho_cutoff="0.000000000000000E+000"
l_max="2"
l_max_rho="0"
l_local="-3"
mesh_size="1193"
number_of_wfc="0"
number_of_proj="5"/>
<PP_MESH dx="1.250000000000000E-002" mesh="1193" xmin="-7.000000000000000E+000" rmax="9.989934549142637E+001"
zmesh="2.700000000000000E+001">
<PP_R type="real" size="1193" columns="4">
3.377340613164875E-005  3.419822328403786E-005  3.462838397839193E-005  3.506395542819459E-005
3.550500569237111E-005  3.595160368592255E-005  3.640381919069402E-005  3.686172286627819E-005
3.732538626105594E-005  3.779488182337610E-005  3.827028291287544E-005  3.875166381194143E-005
3.923909973731890E-005  3.973266685186284E-005  4.023244227643918E-005  4.073850410197475E-005
4.125093140165938E-005  4.176980424330120E-005  4.229520370183731E-005  4.282721187200214E-005
4.336591188115461E-005  4.391138790226714E-005  4.446372516707781E-005  4.502300997940795E-005
4.558932972864744E-005  4.616277290340924E-005  4.674342910535610E-005  4.733138906320090E-005
4.792674464688326E-005  4.852958888192445E-005  4.914001596396265E-005  4.975812127347136E-005
5.038400139066274E-005  5.101775411057841E-005  5.165947845837032E-005  5.230927470477339E-005
5.296724438177313E-005  5.363349029847021E-005  5.430811655714455E-005  5.499122856952174E-005
5.568293307324342E-005  5.638333814854561E-005  5.709255323514631E-005  5.781068914934564E-005
5.853785810134137E-005  5.927417371276164E-005  6.001975103441877E-005  6.077470656428615E-005
6.153915826570125E-005  6.231322558579782E-005  6.309702947416941E-005  6.389069240176823E-005
6.469433838004146E-005  6.550809298030817E-005  6.633208335338037E-005  6.716643824943019E-005
6.801128803810767E-005  6.886676472891115E-005  6.973300199181397E-005  7.061013517815098E-005
7.149830134176701E-005  7.239763926043211E-005  7.330828945752580E-005  7.423039422399404E-005
7.516409764058274E-005  7.610954560035033E-005  7.706688583146405E-005  7.803626792028274E-005
7.901784333472992E-005  8.001176544796127E-005  8.101818956232908E-005  8.203727293364877E-005
8.306917479577050E-005  8.411405638545951E-005  8.517208096759022E-005  8.624341386065607E-005
8.732822246260121E-005  8.842667627697680E-005  8.953894693942605E-005  9.066520824450308E-005
9.180563617282809E-005  9.296040891858513E-005  9.412970691736512E-005  9.531371287435926E-005
9.651261179290735E-005  9.772659100340451E-005  9.895584019257224E-005  1.002005514330973E-004
1.014609192136433E-004  1.027371404692403E-004  1.040294146120560E-004  1.053379435625544E-004
1.066629317810460E-004  1.080045862996358E-004  1.093631167545721E-004  1.107387354190022E-004
1.121316572361413E-004  1.135420998528571E-004  1.149702836536781E-004  1.164164317952289E-004
1.178807702410988E-004  1.193635277971491E-004  1.208649361472648E-004  1.223852298895549E-004
1.239246465730101E-004  1.254834267346190E-004  1.270618139369531E-004  1.286600548062242E-004
1.302783990708196E-004  1.319170996003233E-004  1.335764124450270E-004  1.352565968759386E-004
1.369579154252938E-004  1.386806339275770E-004  1.404250215610596E-004  1.421913508898579E-004
1.439798979065234E-004  1.457909420751661E-004  1.476247663751219E-004  1.494816573451688E-004
1.513619051282988E-004  1.532658035170532E-004  1.551936499994289E-004  1.571457458053607E-004
1.591223959537904E-004  1.611239093003248E-004  1.631505985854965E-004  1.652027804836297E-004
1.672807756523209E-004  1.693849087825435E-004  1.715155086493795E-004  1.736729081633930E-004
1.758574444226473E-004  1.780694587653774E-004  1.803092968233246E-004  1.825773085757427E-004
1.848738484040821E-004  1.871992751473635E-004  1.895539521582465E-004  1.919382473598046E-004
1.943525333030143E-004  1.967971872249657E-004  1.992725911078082E-004  2.017791317384344E-004
2.043172007689175E-004  2.068871947777074E-004  2.094895153315966E-004  2.121245690484661E-004
2.147927676608202E-004  2.174945280801204E-004  2.202302724619294E-004  2.230004282718726E-004
2.258054283524310E-004  2.286457109905743E-004  2.315217199862430E-004  2.344339047216943E-004
2.373827202317179E-004  2.403686272747365E-004  2.433920924048007E-004  2.464535880444879E-004
2.495535925587210E-004  2.526925903295121E-004  2.558710718316493E-004  2.590895337093339E-004
2.623484788537822E-004  2.656484164818037E-004  2.689898622153663E-004  2.723733381621643E-004
2.757993729971979E-004  2.792685020453804E-004  2.827812673651838E-004  2.863382178333359E-004
2.899399092305842E-004  2.935869043285372E-004  2.972797729775983E-004  3.010190921960078E-004
3.048054462600011E-004  3.086394267951040E-004  3.125216328685755E-004  3.164526710830126E-004
3.204331556711346E-004  3.244637085917566E-004  3.285449596269725E-004  3.326775464805602E-004
3.368621148776228E-004  3.410993186654867E-004  3.453898199158639E-004  3.497342890283041E-004
3.541334048349449E-004  3.585878547065809E-004  3.630983346600677E-004  3.676655494670745E-004
3.722902127642069E-004  3.769730471645140E-004  3.817147843703978E-004  3.865161652879446E-004
3.913779401426909E-004  3.963008685968492E-004  4.012857198680060E-004  4.063332728493140E-004
4.114443162311965E-004  4.166196486245802E-004  4.218600786856806E-004  4.271664252423567E-004
4.325395174220534E-004  4.379801947813562E-004  4.434893074371712E-004  4.490677161995592E-004
4.547162927062388E-004  4.604359195587808E-004  4.662274904605184E-004  4.720919103561877E-004
4.780300955733286E-004  4.840429739654627E-004  4.901314850570714E-004  4.962965801904011E-004
5.025392226741086E-004  5.088603879337831E-004  5.152610636643567E-004  5.217422499844341E-004
5.283049595925650E-004  5.349502179254770E-004  5.416790633183045E-004  5.484925471668301E-004
5.553917340917668E-004  5.623777021051091E-004  5.694515427785716E-004  5.766143614141515E-004
5.838672772168333E-004  5.912114234694670E-004  5.986479477098472E-004  6.061780119100158E-004
6.138027926578242E-004  6.215234813407767E-004  6.293412843321876E-004  6.372574231796809E-004
6.452731347960561E-004  6.533896716525616E-004  6.616083019745945E-004  6.699303099398630E-004
6.783569958790437E-004  6.868896764789587E-004  6.955296849883115E-004  7.042783714260094E-004
7.131371027921086E-004  7.221072632814072E-004  7.311902544997326E-004  7.403874956829419E-004
7.497004239186811E-004  7.591304943709355E-004  7.686791805073979E-004  7.783479743297049E-004
7.881383866065621E-004  7.980519471098063E-004  8.080902048534360E-004  8.182547283356461E-004
8.285471057839112E-004  8.389689454031471E-004  8.495218756269975E-004  8.602075453722805E-004
8.710276242966336E-004  8.819838030594030E-004  8.930777935858102E-004  9.043113293344458E-004
9.156861655681259E-004  9.272040796281536E-004  9.388668712120350E-004  9.506763626546828E-004
9.626343992131610E-004  9.747428493550116E-004  9.870036050502031E-004  9.994185820667587E-004
1.011989720270095E-003  1.024718983926133E-003  1.037608362008216E-003  1.050659868507893E-003
1.063875542749609E-003  1.077257449709351E-003  1.090807680337307E-003  1.104528351884582E-003
1.118421608234019E-003  1.132489620235189E-003  1.146734586043589E-003  1.161158731464107E-003
1.175764310298813E-003  1.190553604699114E-003  1.205528925522349E-003  1.220692612692865E-003
1.236047035567632E-003  1.251594593306465E-003  1.267337715246890E-003  1.283278861283742E-003
1.299420522253520E-003  1.315765220323591E-003  1.332315509386284E-003  1.349073975457935E-003
1.366043237082963E-003  1.383225945743023E-003  1.400624786271299E-003  1.418242477272025E-003
1.436081771545260E-003  1.454145456517030E-003  1.472436354674864E-003  1.490957324008809E-003
1.509711258458008E-003  1.528701088362872E-003  1.547929780922960E-003  1.567400340660604E-003
1.587115809890377E-003  1.607079269194458E-003  1.627293837903979E-003  1.647762674586427E-003
1.668488977539179E-003  1.689475985289237E-003  1.710726977099264E-003  1.732245273479962E-003
1.754034236708923E-003  1.776097271355981E-003  1.798437824815184E-003  1.821059387843466E-003
1.843965495106072E-003  1.867159725728866E-003  1.890645703857571E-003  1.914427099224052E-003
1.938507627719719E-003  1.962891051976142E-003  1.987581181952968E-003  2.012581875533240E-003
2.037897039126194E-003  2.063530628277645E-003  2.089486648288051E-003  2.115769154838344E-003
2.142382254623648E-003  2.169330105994946E-003  2.196616919608842E-003  2.224246959085480E-003
2.252224541674740E-003  2.280554038930824E-003  2.309239877395312E-003  2.338286539288830E-003
2.367698563211393E-003  2.397480544851576E-003  2.427637137704606E-003  2.458173053799467E-003
2.489093064435177E-003  2.520402000926305E-003  2.552104755357873E-003  2.584206281349765E-003
2.616711594830726E-003  2.649625774822121E-003  2.682953964231537E-003  2.716701370656375E-003
2.750873267197552E-003  2.785474993283422E-003  2.820511955504087E-003  2.855989628456176E-003
2.891913555598266E-003  2.928289350117063E-003  2.965122695804465E-003  3.002419347945677E-003
3.040185134218475E-003  3.078425955603798E-003  3.117147787307793E-003  3.156356679695438E-003
3.196058759235946E-003  3.236260229460016E-003  3.276967371929160E-003  3.318186547217212E-003
3.359924195904167E-003  3.402186839582553E-003  3.444981081876427E-003  3.488313609473211E-003
3.532191193168506E-003  3.576620688924031E-003  3.621609038938892E-003  3.667163272734309E-003
3.713290508251991E-003  3.759997952966337E-003  3.807292905010607E-003  3.855182754317285E-003
3.903674983772755E-003  3.952777170386526E-003  4.002496986475160E-003  4.052842200861072E-003
4.103820680086441E-003  4.155440389642362E-003  4.207709395213473E-003  4.260635863938238E-003
4.314228065685073E-003  4.368494374344538E-003  4.423443269137766E-003  4.479083335941359E-003
4.535423268628961E-003  4.592471870429675E-003  4.650238055303602E-003  4.708730849334653E-003
4.767959392140897E-003  4.827932938302655E-003  4.888660858808526E-003  4.950152642519646E-003
5.012417897652323E-003  5.075466353279351E-003  5.139307860850196E-003  5.203952395730301E-003
5.269410058759764E-003  5.335691077831604E-003  5.402805809489904E-003  5.470764740548032E-003
5.539578489727226E-003  5.609257809315800E-003  5.679813586849203E-003  5.751256846811222E-003
5.823598752356580E-003  5.896850607055196E-003  5.971023856658399E-003  6.046130090887349E-003
6.122181045243947E-003  6.199188602844539E-003  6.277164796276672E-003  6.356121809479214E-003
6.436071979646118E-003  6.517027799154133E-003  6.599001917514759E-003  6.682007143350772E-003
6.766056446397582E-003  6.851162959529790E-003  6.937339980813226E-003  7.024600975582790E-003
7.112959578546451E-003  7.202429595915688E-003  7.293025007562744E-003  7.384759969205008E-003
7.477648814616870E-003  7.571706057869410E-003  7.666946395598247E-003  7.763384709299921E-003
7.861036067657154E-003  7.959915728893359E-003  8.060039143156776E-003  8.161421954934590E-003
8.264080005497403E-003  8.368029335374479E-003  8.473286186860093E-003  8.579867006551440E-003
8.687788447918433E-003  8.797067373905858E-003  8.907720859568232E-003  9.019766194737808E-003
9.133220886726169E-003  9.248102663059763E-003  9.364429474249871E-003  9.482219496597413E-003
9.601491135033023E-003  9.722263025992864E-003  9.844554040330617E-003  9.968383286266071E-003
1.009377011237084E-002  1.022073411059160E-002  1.034929511931139E-002  1.047947322644937E-002
1.061128877259964E-002  1.074476235420946E-002  1.087991482679752E-002  1.101676730821262E-002
1.115534118193341E-002  1.129565810040960E-002  1.143773998844518E-002  1.158160904662422E-002
1.172728775477975E-002  1.187479887550632E-002  1.202416545771666E-002  1.217541084024312E-002
1.232855865548443E-002  1.248363283309831E-002  1.264065760374051E-002  1.279965750285091E-002
1.296065737448724E-002  1.312368237520699E-002  1.328875797799821E-002  1.345590997625968E-002
1.362516448783120E-002  1.379654795907456E-002  1.397008716900582E-002  1.414580923347959E-002
1.432374160942598E-002  1.450391209914071E-002  1.468634885462937E-002  1.487108038200618E-002
1.505813554594812E-002  1.524754357420513E-002  1.543933406216698E-002  1.563353697748762E-002
1.583018266476766E-002  1.602930185029583E-002  1.623092564684998E-002  1.643508555855852E-002
1.664181348582303E-002  1.685114173030273E-002  1.706310299996170E-002  1.727773041417957E-002
1.749505750892648E-002  1.771511824200312E-002  1.793794699834676E-002  1.816357859540394E-002
1.839204828857073E-002  1.862339177670152E-002  1.885764520768702E-002  1.909484518410238E-002
1.933502876892652E-002  1.957823349133324E-002  1.982449735255520E-002  2.007385883182175E-002
2.032635689237136E-002  2.058203098753969E-002  2.084092106692429E-002  2.110306758262679E-002
2.136851149557359E-002  2.163729428191615E-002  2.190945793951167E-002  2.218504499448539E-002
2.246409850787532E-002  2.274666208236067E-002  2.303277986907483E-002  2.332249657450408E-002
2.361585746747310E-002  2.391290838621823E-002  2.421369574554991E-002  2.451826654410497E-002
2.482666837169036E-002  2.513894941671906E-002  2.545515847373972E-002  2.577534495106082E-002
2.609955887847088E-002  2.642785091505566E-002  2.676027235711380E-002  2.709687514617193E-002
2.743771187710067E-002  2.778283580633267E-002  2.813230086018403E-002  2.848616164328040E-002
2.884447344708908E-002  2.920729225855840E-002  2.957467476886583E-002  2.994667838227603E-002
3.032336122511045E-002  3.070478215482966E-002  3.109100076922991E-002  3.148207741575550E-002
3.187807320092808E-002  3.227904999989475E-002  3.268507046609614E-002  3.309619804105615E-002
3.351249696429481E-002  3.393403228336585E-002  3.436086986402049E-002  3.479307640049912E-002
3.523071942595239E-002  3.567386732299341E-002  3.612258933438271E-002  3.657695557384747E-002
3.703703703703706E-002  3.750290561261611E-002  3.797463409349738E-002  3.845229618821576E-002
3.893596653244535E-002  3.942572070066147E-002  3.992163521794933E-002  4.042378757196120E-002
4.093225622502401E-002  4.144712062639929E-002  4.196846122469729E-002  4.249635948044714E-002
4.303089787882532E-002  4.357215994254410E-002  4.412023024490216E-002  4.467519442299930E-002
4.523713919111742E-002  4.580615235426982E-002  4.638232282192092E-002  4.696574062187851E-002
4.755649691436082E-002  4.815468400624043E-002  4.876039536546749E-002  4.937372563567419E-002
4.999477065096310E-002  5.062362745088137E-002  5.126039429558341E-002  5.190517068118421E-002
5.255805735530585E-002  5.321915633281944E-002  5.388857091178526E-002  5.456640568959319E-002
5.525276657930633E-002  5.594776082621012E-002  5.665149702456961E-002  5.736408513459755E-002
5.808563649963591E-002  5.881626386355348E-002  5.955608138836235E-002  6.030520467205595E-002
6.106375076667144E-002  6.183183819657939E-002  6.260958697700342E-002  6.339711863277278E-002
6.419455621731096E-002  6.500202433186295E-002  6.581964914496441E-002  6.664755841215590E-002
6.748588149594481E-002  6.833474938601854E-002  6.919429471971197E-002  7.006465180273223E-002
7.094595663014433E-002  7.183834690762055E-002  7.274196207295733E-002  7.365694331786270E-002
7.458343361001768E-002  7.552157771541541E-002  7.647152222098101E-002  7.743341555747617E-002
7.840740802269169E-002  7.939365180493185E-002  8.039230100679420E-002  8.140351166924825E-002
8.242744179601737E-002  8.346425137826702E-002  8.451410241960387E-002  8.557715896138908E-002
8.665358710837008E-002  8.774355505463484E-002  8.884723310989255E-002  8.996479372608478E-002
9.109641152433151E-002  9.224226332221599E-002  9.340252816141294E-002  9.457738733566401E-002
9.576702441910545E-002  9.697162529495193E-002  9.819137818454103E-002  9.942647367674338E-002
1.006771047577425E-001  1.019434668411891E-001  1.032257577987352E-001  1.045241779909519E-001
1.058389302986358E-001  1.071702201545097E-001  1.085182555753223E-001  1.098832471943507E-001
1.112654082943124E-001  1.126649548406913E-001  1.140821055154827E-001  1.155170817513627E-001
1.169701077662877E-001  1.184414105985288E-001  1.199312201421468E-001  1.214397691829139E-001
1.229672934346870E-001  1.245140315762382E-001  1.260802252885489E-001  1.276661192925732E-001
1.292719613874757E-001  1.308980024893508E-001  1.325444966704289E-001  1.342117011987757E-001
1.358998765784906E-001  1.376092865904113E-001  1.393401983333301E-001  1.410928822657282E-001
1.428676122480362E-001  1.446646655854242E-001  1.464843230711325E-001  1.483268690303454E-001
1.501925913646176E-001  1.520817815968598E-001  1.539947349168893E-001  1.559317502275542E-001
1.578931301914377E-001  1.598791812781499E-001  1.618902138122133E-001  1.639265420215532E-001
1.659884840865951E-001  1.680763621899816E-001  1.701905025669145E-001  1.723312355561286E-001
1.744988956515090E-001  1.766938215543558E-001  1.789163562263067E-001  1.811668469429262E-001
1.834456453479673E-001  1.857531075083171E-001  1.880895939696327E-001  1.904554698126773E-001
1.928511047103649E-001  1.952768729855220E-001  1.977331536693770E-001  2.002203305607841E-001
2.027387922861927E-001  2.052889323603713E-001  2.078711492478948E-001  2.104858464254054E-001
2.131334324446568E-001  2.158143209963510E-001  2.185289309747785E-001  2.212776865432714E-001
2.240610172004796E-001  2.268793578474811E-001  2.297331488557358E-001  2.326228361358951E-001
2.355488712074754E-001  2.385117112694097E-001  2.415118192714857E-001  2.445496639866826E-001
2.476257200844175E-001  2.507404682047141E-001  2.538943950333030E-001  2.570879933776681E-001
2.603217622440480E-001  2.635962069154074E-001  2.669118390303878E-001  2.702691766632532E-001
2.736687444048390E-001  2.771110734445216E-001  2.805967016532166E-001  2.841261736674235E-001
2.877000409743251E-001  2.913188619979591E-001  2.949832021864732E-001  2.986936341004768E-001
3.024507375025057E-001  3.062550994476101E-001  3.101073143750840E-001  3.140079842013473E-001
3.179577184139962E-001  3.219571341670374E-001  3.260068563773190E-001  3.301075178221756E-001
3.342597592383010E-001  3.384642294218640E-001  3.427215853298851E-001  3.470324921828865E-001
3.513976235688344E-001  3.558176615483892E-001  3.602932967614773E-001  3.648252285352070E-001
3.694141649931381E-001  3.740608231659280E-001  3.787659291033705E-001  3.835302179878405E-001
3.883544342491696E-001  3.932393316809634E-001  3.981856735583837E-001  4.031942327574128E-001
4.082657918756150E-001  4.134011433544212E-001  4.186010896029477E-001  4.238664431233751E-001
4.291980266379036E-001  4.345966732173042E-001  4.400632264110891E-001  4.455985403793163E-001
4.512034800260548E-001  4.568789211345282E-001  4.626257505039560E-001  4.684448660881197E-001
4.743371771356682E-001  4.803036043321904E-001  4.863450799440749E-001  4.924625479641773E-001
4.986569642593221E-001  5.049292967196579E-001  5.112805254098927E-001  5.177116427224311E-001
5.242236535324373E-001  5.308175753548495E-001  5.374944385033676E-001  5.442552862514426E-001
5.511011749952905E-001  5.580331744189553E-001  5.650523676614506E-001  5.721598514860010E-001
5.793567364514141E-001  5.866441470856083E-001  5.940232220613213E-001  6.014951143740312E-001
6.090609915221135E-001  6.167220356892649E-001  6.244794439292237E-001  6.323344283528096E-001
6.402882163173204E-001  6.483420506183071E-001  6.564971896837648E-001  6.647549077707647E-001
6.731164951645581E-001  6.815832583801872E-001  6.901565203666302E-001  6.988376207135145E-001
7.076279158604317E-001  7.165287793088821E-001  7.255416018368890E-001  7.346677917163086E-001
7.439087749328769E-001  7.532659954090229E-001  7.627409152294828E-001  7.723350148697562E-001
7.820497934274306E-001  7.918867688564205E-001  8.018474782041507E-001  8.119334778517212E-001
8.221463437570981E-001  8.324876717013565E-001  8.429590775380272E-001  8.535621974455774E-001
8.642986881830638E-001  8.751702273490084E-001  8.861785136435242E-001  8.973252671337404E-001
9.086122295225690E-001  9.200411644208463E-001  9.316138576229028E-001  9.433321173855961E-001
9.551977747108545E-001  9.672126836317770E-001  9.793787215023260E-001  9.916977892906716E-001
1.004171811876219E+000  1.016802738350375E+000  1.029592542321099E+000  1.042543222221284E+000
1.055656801621011E+000  1.068935329543742E+000  1.082380880786480E+000  1.095995556243962E+000
1.109781483236927E+000  1.123740815844516E+000  1.137875735240850E+000  1.152188450035840E+000
1.166681196620295E+000  1.181356239515352E+000  1.196215871726322E+000  1.211262415100969E+000
1.226498220692308E+000  1.241925669125961E+000  1.257547170972132E+000  1.273365167122267E+000
1.289382129170446E+000  1.305600559799576E+000  1.322022993172441E+000  1.338651995327665E+000
1.355490164580667E+000  1.372540131929652E+000  1.389804561466704E+000  1.407286150794066E+000
1.424987631445635E+000  1.442911769313777E+000  1.461061365081502E+000  1.479439254660072E+000
1.498048309632126E+000  1.516891437700364E+000  1.535971583141881E+000  1.555291727268223E+000
1.574854888891215E+000  1.594664124794664E+000  1.614722530211983E+000  1.635033239309824E+000
1.655599425677809E+000  1.676424302824399E+000  1.697511124679018E+000  1.718863186100481E+000
1.740483823391826E+000  1.762376414821619E+000  1.784544381151809E+000  1.806991186172239E+000
1.829720337241860E+000  1.852735385836769E+000  1.876039928105136E+000  1.899637605429101E+000
1.923532104993758E+000  1.947727160363277E+000  1.972226552064283E+000  1.997034108176577E+000
2.022153704931270E+000  2.047589267316460E+000  2.073344769690524E+000  2.099424236403105E+000
2.125831742423935E+000  2.152571413979557E+000  2.179647429198052E+000  2.207064018761888E+000
2.234825466568963E+000  2.262936110401977E+000  2.291400342606220E+000  2.320222610775884E+000
2.349407418449013E+000  2.378959325811181E+000  2.408882950408037E+000  2.439182967866806E+000
2.469864112626860E+000  2.500931178679487E+000  2.532389020316969E+000  2.564242552891061E+000
2.596496753581034E+000  2.629156662171368E+000  2.662227381839225E+000  2.695714079951840E+000
2.729621988873920E+000  2.763956406785221E+000  2.798722698508396E+000  2.833926296347255E+000
2.869572700935589E+000  2.905667482096635E+000  2.942216279713386E+000  2.979224804609826E+000
3.016698839443265E+000  3.054644239607890E+000  3.093066934149677E+000  3.131972926692817E+000
3.171368296377802E+000  3.211259198811293E+000  3.251651867027957E+000  3.292552612464382E+000
3.333967825945255E+000  3.375903978681942E+000  3.418367623283626E+000  3.461365394781172E+000
3.504904011663857E+000  3.548990276929147E+000  3.593631079145683E+000  3.638833393529632E+000
3.684604283034588E+000  3.730950899455153E+000  3.777880484544436E+000  3.825400371145587E+000
3.873517984337564E+000  3.922240842595331E+000  3.971576558964613E+000  4.021532842251470E+000
4.072117498226801E+000  4.123338430846013E+000  4.175203643484045E+000  4.227721240185891E+000
4.280899426932880E+000  4.334746512924886E+000  4.389270911878642E+000  4.444481143342425E+000
4.500385834027221E+000  4.556993719154691E+000  4.614313643822054E+000  4.672354564384154E+000
4.731125549852923E+000  4.790635783314406E+000  4.850894563363656E+000  4.911911305557654E+000
4.973695543886500E+000  5.036256932263147E+000  5.099605246031804E+000  5.163750383495382E+000
5.228702367462112E+000  5.294471346811630E+000  5.361067598080778E+000  5.428501527069303E+000
5.496783670465805E+000  5.565924697494110E+000  5.635935411580356E+000  5.706826752041065E+000
5.778609795792412E+000  5.851295759081022E+000  5.924895999236544E+000  5.999422016446236E+000
6.074885455551920E+000  6.151298107869485E+000  6.228671913031318E+000  6.307018960851894E+000
6.386351493216828E+000  6.466681905995715E+000  6.548022750978980E+000  6.630386737839142E+000
6.713786736116718E+000  6.798235777231111E+000  6.883747056516820E+000  6.970333935285203E+000
7.058009942912228E+000  7.146788778952466E+000  7.236684315279665E+000  7.327710598254281E+000
7.419881850918216E+000  7.513212475217224E+000  7.607717054251236E+000  7.703410354552987E+000
7.800307328395354E+000  7.898423116127632E+000  7.997773048541270E+000  8.098372649265340E+000
8.200237637192117E+000  8.303383928933226E+000  8.407827641306596E+000  8.513585093854779E+000
8.620672811394899E+000  8.729107526600689E+000  8.838906182617025E+000  8.950085935707287E+000
9.062664157934096E+000  9.176658439873716E+000  9.292086593364614E+000  9.408966654290632E+000
9.527316885399072E+000  9.647155779154334E+000  9.768502060627380E+000  9.891374690421561E+000
1.001579286763529E+001  1.014177603286187E+001  1.026934387122719E+001  1.039851631546554E+001
1.052931354903411E+001  1.066175600926678E+001  1.079586439056741E+001  1.093165964764343E+001
1.106916299878002E+001  1.120839592915555E+001  1.134938019419868E+001  1.149213782298765E+001
1.163669112169239E+001  1.178306267705993E+001  1.193127535994357E+001  1.208135232887659E+001
1.223331703369070E+001  1.238719321918020E+001  1.254300492881213E+001  1.270077650848313E+001
1.286053261032351E+001  1.302229819654922E+001  1.318609854336220E+001  1.335195924489991E+001
1.351990621723440E+001  1.368996570242181E+001  1.386216427260267E+001  1.403652883415392E+001
1.421308663189305E+001  1.439186525333514E+001  1.457289263300356E+001  1.475619705679467E+001
1.494180716639761E+001  1.512975196376965E+001  1.532006081566773E+001  1.551276345823718E+001
1.570789000165795E+001  1.590547093484942E+001  1.610553713023440E+001  1.630811984856292E+001
1.651325074379693E+001  1.672096186805613E+001  1.693128567662627E+001  1.714425503303035E+001
1.735990321416359E+001  1.757826391549305E+001  1.779937125632257E+001  1.802325978512399E+001
1.824996448493544E+001  1.847952077882748E+001  1.871196453543811E+001  1.894733207457719E+001
1.918566017290157E+001  1.942698606966150E+001  1.967134747251930E+001  1.991878256344137E+001
2.016933000466405E+001  2.042302894473479E+001  2.067991902462911E+001  2.094004038394464E+001
2.120343366717302E+001  2.147014003005061E+001  2.174020114598924E+001  2.201365921258771E+001
2.229055695822527E+001  2.257093764873806E+001  2.285484509417940E+001  2.314232365566524E+001
2.343341825230571E+001  2.372817436822374E+001  2.402663805966217E+001  2.432885596217999E+001
2.463487529793935E+001  2.494474388308405E+001  2.525851013521094E+001  2.557622308093532E+001
2.589793236355133E+001  2.622368825078889E+001  2.655354164266814E+001  2.688754407945264E+001
2.722574774970271E+001  2.756820549842989E+001  2.791497083535415E+001  2.826609794326487E+001
2.862164168648703E+001  2.898165761945392E+001  2.934620199538749E+001  2.971533177508814E+001
3.008910463583496E+001  3.046757898039787E+001  3.085081394616326E+001  3.123886941437420E+001
3.163180601948713E+001  3.202968515864599E+001  3.243256900127577E+001  3.284052049879661E+001
3.325360339445994E+001  3.367188223330863E+001  3.409542237226226E+001  3.452428999032919E+001
3.495855209894737E+001  3.539827655245472E+001  3.584353205869176E+001  3.629438818973719E+001
3.675091539277875E+001  3.721318500112078E+001  3.768126924533004E+001  3.815524126452203E+001
3.863517511778904E+001  3.912114579577204E+001  3.961322923237827E+001  4.011150231664578E+001
4.061604290475776E+001  4.112692983220759E+001  4.164424292611706E+001  4.216806301770963E+001
4.269847195494032E+001  4.323555261528467E+001  4.377938891868859E+001  4.433006584068087E+001
4.488766942565102E+001  4.545228680029359E+001  4.602400618722210E+001  4.660291691875395E+001
4.718910945086867E+001  4.778267537734212E+001  4.838370744405788E+001  4.899229956349921E+001
4.960854682942293E+001  5.023254553171809E+001  5.086439317145152E+001  5.150418847610241E+001
5.215203141498877E+001  5.280802321488786E+001  5.347226637585298E+001  5.414486468722956E+001
5.482592324387209E+001  5.551554846256568E+001  5.621384809865381E+001  5.692093126287527E+001
5.763690843841314E+001  5.836189149815771E+001  5.909599372218705E+001  5.983932981546723E+001
6.059201592577507E+001  6.135416966184680E+001  6.212591011175420E+001  6.290735786151273E+001
6.369863501392312E+001  6.449986520765032E+001  6.531117363654215E+001  6.613268706919136E+001
6.696453386874315E+001  6.780684401295231E+001  6.865974911449260E+001  6.952338244152131E+001
7.039787893850298E+001  7.128337524729440E+001  7.218000972849536E+001  7.308792248306777E+001
7.400725537422663E+001  7.493815204960671E+001  7.588075796370740E+001  7.683522040062050E+001
7.780168849704368E+001  7.878031326558322E+001  7.977124761835037E+001  8.077464639085375E+001
8.179066636619299E+001  8.281946629955637E+001  8.386120694302647E+001  8.491605107069846E+001
8.598416350411328E+001  8.706571113801176E+001  8.816086296641214E+001  8.926979010901560E+001
9.039266583794448E+001  9.152966560481583E+001  9.268096706815649E+001  9.384675012116246E+001