<UPF version="2.0.1">
<PP_INFO>
Generated in analytical, separable form
Author: Goedecker/Hartwigsen/Hutter/Teter
Generation date: Phys.Rev.B58, 3641 (1998); B54, 1703 (1996)
Pseudopotential type: NC
Element: Cr
Functional: SLA-PW-PBX-PBC

Suggested minimum cutoff for wavefunctions:   0. Ry
Suggested minimum cutoff for charge density:   0. Ry
The Pseudo was generated with a Non-Relativistic Calculation
Local Potential: unknown format, L component and cutoff radius: -3   0.0000

Valence configuration:
nl pn  l   occ       Rcut    Rcut US       E pseu

Generation configuration: not available.
Converted from CPMD format using cpmd2upf v.5.0.1 - PG 10Jul2012
Atomic orbitals could not be generated by ld1.x - use with care
</PP_INFO>
<!--                               -->
<!-- END OF HUMAN READABLE SECTION -->
<!--                               -->
<PP_HEADER generated="Generated in analytical, separable form"
author="Goedecker/Hartwigsen/Hutter/Teter"
date="Phys.Rev.B58, 3641 (1998); B54, 1703 (1996)"
comment="Atomic orbitals could not be generated by ld1.x - use with care"
element="Cr"
pseudo_type="NC"
relativistic="no"
is_ultrasoft="F"
is_paw="F"
is_coulomb="F"
has_so="F"
has_wfc="F"
has_gipaw="F"
paw_as_gipaw="F"
core_correction="F"
functional="SLA-PW-PBX-PBC"
z_valence="1.400000000000000E+001"
total_psenergy="0.000000000000000E+000"
wfc_cutoff="0.000000000000000E+000"
rho_cutoff="0.000000000000000E+000"
l_max="2"
l_max_rho="0"
l_local="-3"
mesh_size="1183"
number_of_wfc="0"
number_of_proj="5"/>
<PP_MESH dx="1.250000000000000E-002" mesh="1183" xmin="-7.000000000000000E+000" rmax="9.918097083721365E+001"
zmesh="2.400000000000000E+001">
<PP_R type="real" size="1183" columns="4">
3.799508189810485E-005  3.847300119454260E-005  3.895693197569092E-005  3.944694985671892E-005
3.994313140391749E-005  4.044555414666287E-005  4.095429658953078E-005  4.146943822456297E-005
4.199105954368794E-005  4.251924205129811E-005  4.305406827698487E-005  4.359562178843411E-005
4.414398720448376E-005  4.469925020834570E-005  4.526149756099408E-005  4.583081711472160E-005
4.640729782686680E-005  4.699102977371385E-005  4.758210416456698E-005  4.818061335600240E-005
4.878665086629894E-005  4.940031139005053E-005  5.002169081296253E-005  5.065088622683395E-005
5.128799594472837E-005  5.193311951633540E-005  5.258635774352561E-005  5.324781269610102E-005
5.391758772774367E-005  5.459578749216501E-005  5.528251795945798E-005  5.597788643265528E-005
5.668200156449558E-005  5.739497337440071E-005  5.811691326566661E-005  5.884793404287007E-005
5.958814992949477E-005  6.033767658577898E-005  6.109663112678763E-005  6.186513214071195E-005
6.264329970739885E-005  6.343125541711382E-005  6.422912238953960E-005  6.503702529301384E-005
6.585509036400904E-005  6.668344542685684E-005  6.752221991372111E-005  6.837154488482191E-005
6.923155304891392E-005  7.010237878402255E-005  7.098415815844058E-005  7.187702895198926E-005
7.278113067754666E-005  7.369660460284669E-005  7.462359377255290E-005  7.556224303060896E-005
7.651269904287113E-005  7.747511032002505E-005  7.844962724079073E-005  7.943640207541985E-005
8.043558900948788E-005  8.144734416798612E-005  8.247182563971652E-005  8.350919350199329E-005
8.455960984565558E-005  8.562323880039412E-005  8.670024656039705E-005  8.779080141031808E-005
8.889507375157117E-005  9.001323612895644E-005  9.114546325762021E-005  9.229193205035487E-005
9.345282164524181E-005  9.462831343364196E-005  9.581859108853901E-005  9.702384059323808E-005
9.824425027042638E-005  9.948001081159889E-005  1.007313153068543E-004  1.019983592750660E-004
1.032813406944316E-004  1.045804600334083E-004  1.058959202820358E-004  1.072279269836542E-004
1.085766882670208E-004  1.099424148788301E-004  1.113253202166438E-004  1.127256203622344E-004
1.141435341153487E-004  1.155792830278954E-004  1.170330914385630E-004  1.185051865078736E-004
1.199957982536768E-004  1.215051595870903E-004  1.230335063488936E-004  1.245810773463775E-004
1.261481143906590E-004  1.277348623344643E-004  1.293415691103879E-004  1.309684857696325E-004
1.326158665212361E-004  1.342839687717928E-004  1.359730531656729E-004  1.376833836257492E-004
1.394152273946363E-004  1.411688550764463E-004  1.429445406790723E-004  1.447425616570022E-004
1.465631989546720E-004  1.484067370503637E-004  1.502734640006554E-004  1.521636714854310E-004
1.540776548534555E-004  1.560157131685242E-004  1.579781492561920E-004  1.599652697510901E-004
1.619773851448388E-004  1.640148098345618E-004  1.660778621720121E-004  1.681668645133149E-004
1.702821432693361E-004  1.724240289566849E-004  1.745928562493575E-004  1.767889640310309E-004
1.790126954480142E-004  1.812643979628654E-004  1.835444234086836E-004  1.858531280440834E-004
1.881908726088611E-004  1.905580223803614E-004  1.929549472305519E-004  1.953820216838171E-004
1.978396249754782E-004  2.003281411110496E-004  2.028479589262401E-004  2.053994721477105E-004
2.079830794545924E-004  2.105991845407839E-004  2.132481961780273E-004  2.159305282797802E-004
2.186465999658910E-004  2.213968356280865E-004  2.241816649962842E-004  2.270015232057387E-004
2.298568508650321E-004  2.327480941249208E-004  2.356757047480462E-004  2.386401401795244E-004
2.416418636184228E-004  2.446813440901355E-004  2.477590565196706E-004  2.508754818058566E-004
2.540311068964849E-004  2.572264248643962E-004  2.604619349845234E-004  2.637381428119061E-004
2.670555602606826E-004  2.704147056840786E-004  2.738161039554008E-004  2.772602865500489E-004
2.807477916285611E-004  2.842791641207012E-004  2.878549558106055E-004  2.914757254230007E-004
2.951420387105049E-004  2.988544685420291E-004  3.026135949922871E-004  3.064200054324348E-004
3.102742946218477E-004  3.141770648010529E-004  3.181289257858317E-004  3.221304950625029E-004
3.261823978844072E-004  3.302852673696043E-004  3.344397445997981E-004  3.386464787205088E-004
3.429061270425013E-004  3.472193551444921E-004  3.515868369771474E-004  3.560092549683891E-004
3.604873001300264E-004  3.650216721657262E-004  3.696130795803441E-004  3.742622397906302E-004
3.789698792373256E-004  3.837367334986725E-004  3.885635474053469E-004  3.934510751568421E-004
3.984000804393131E-004  4.034113365449035E-004  4.084856264925762E-004  4.136237431504588E-004
4.188264893597328E-004  4.240946780600782E-004  4.294291324166975E-004  4.348306859489377E-004
4.403001826605273E-004  4.458384771714553E-004  4.514464348515067E-004  4.571249319554782E-004
4.628748557600961E-004  4.686971047026527E-004  4.745925885213907E-004  4.805622283976513E-004
4.866069570998101E-004  4.927277191290257E-004  4.989254708668175E-004  5.052011807245041E-004
5.115558292945187E-004  5.179904095036285E-004  5.245059267680833E-004  5.311033991507112E-004
5.377838575199947E-004  5.445483457111455E-004  5.513979206892053E-004  5.583336527142012E-004
5.653566255083722E-004  5.724679364255059E-004  5.796686966224013E-004  5.869600312324885E-004
5.943430795416356E-004  6.018189951661617E-004  6.093889462330926E-004  6.170541155626839E-004
6.248157008532377E-004  6.326749148682477E-004  6.406329856258930E-004  6.486911565909204E-004
6.568506868689375E-004  6.651128514031504E-004  6.734789411735781E-004  6.819502633987678E-004
6.905281417400522E-004  6.992139165083738E-004  7.080089448737111E-004  7.169146010771410E-004
7.259322766455631E-004  7.350633806091318E-004  7.443093397214188E-004  7.536715986823458E-004
7.631516203639241E-004  7.727508860388286E-004  7.824708956118504E-004  7.923131678542607E-004
8.022792406411221E-004  8.123706711915831E-004  8.225890363121992E-004  8.329359326433096E-004
8.434129769085163E-004  8.540218061673025E-004  8.647640780708226E-004  8.756414711209179E-004
8.866556849323823E-004  8.978084404985321E-004  9.091014804601155E-004  9.205365693776018E-004
9.321154940069000E-004  9.438400635785405E-004  9.557121100803721E-004  9.677334885438157E-004
9.799060773337128E-004  9.922317784418282E-004  1.004712517784036E-003  1.017350245501251E-003
1.030146936264142E-003  1.043104589581673E-003  1.056225230113539E-003  1.069510907986518E-003
1.082963699114806E-003  1.096585705524388E-003  1.110379055681479E-003  1.124345904825104E-003
1.138488435303857E-003  1.152808856916899E-003  1.167309407259243E-003  1.181992352071379E-003
1.196859985593310E-003  1.211914630923020E-003  1.227158640379470E-003  1.242594395870155E-003
1.258224309263271E-003  1.274050822764587E-003  1.290076409299037E-003  1.306303572897120E-003
1.322734849086165E-003  1.339372805286503E-003  1.356220041212643E-003  1.373279189279474E-003
1.390552915013587E-003  1.408043917469773E-003  1.425754929652751E-003  1.443688718944209E-003
1.461848087535210E-003  1.480235872864040E-003  1.498854948059569E-003  1.517708222390176E-003
1.536798641718334E-003  1.556129188960901E-003  1.575702884555212E-003  1.595522786931028E-003
1.615591992988417E-003  1.635913638581659E-003  1.656490899009221E-003  1.677326989509910E-003
1.698425165765259E-003  1.719788724408231E-003  1.741421003538330E-003  1.763325383243180E-003
1.785505286126674E-003  1.807964177843766E-003  1.830705567641976E-003  1.853733008909730E-003
1.877050099731576E-003  1.900660483450392E-003  1.924567849236672E-003  1.948775932664957E-003
1.973288516297539E-003  1.998109430275478E-003  2.023242552917082E-003  2.048691811323899E-003
2.074461181994331E-003  2.100554691444974E-003  2.126976416839767E-003  2.153730486627058E-003
2.180821081184684E-003  2.208252433473160E-003  2.236028829697089E-003  2.264154609974896E-003
2.292634169016968E-003  2.321471956812351E-003  2.350672479324057E-003  2.380240299193137E-003
2.410180036451604E-003  2.440496369244314E-003  2.471194034559948E-003  2.502277828971165E-003
2.533752609384082E-003  2.565623293797177E-003  2.597894862069726E-003  2.630572356699933E-003
2.663660883612817E-003  2.697165612958023E-003  2.731091779917682E-003  2.765444685524400E-003
2.800229697489574E-003  2.835452251042093E-003  2.871117849777608E-003  2.907232066518486E-003
2.943800544184567E-003  2.980828996674886E-003  3.018323209760479E-003  3.056289041988422E-003
3.094732425597246E-003  3.133659367443850E-003  3.173075949942098E-003  3.212988332013198E-003
3.253402750048049E-003  3.294325518881695E-003  3.335763032780022E-003  3.377721766438887E-003
3.420208275995784E-003  3.463229200054273E-003  3.506791260721267E-003  3.550901264657368E-003
3.595566104140439E-003  3.640792758142518E-003  3.686588293420305E-003  3.732959865619363E-003
3.779914720392188E-003  3.827460194530372E-003  3.875603717110980E-003  3.924352810657362E-003
3.973715092314569E-003  4.023698275039535E-003  4.074310168806254E-003  4.125558681826098E-003
4.177451821783490E-003  4.229997697087129E-003  4.283204518136933E-003  4.337080598606945E-003
4.391634356744350E-003  4.446874316684842E-003  4.502809109784555E-003  4.559447475968706E-003
4.616798265097246E-003  4.674870438347658E-003  4.733673069615157E-003  4.793215346930518E-003
4.853506573895707E-003  4.914556171137605E-003  4.976373677779987E-003  5.038968752934029E-003
5.102351177207581E-003  5.166530854233384E-003  5.231517812216552E-003  5.297322205501485E-003
5.363954316158510E-003  5.431424555590487E-003  5.499743466159592E-003  5.568921722834602E-003
5.638970134858864E-003  5.709899647439270E-003  5.781721343456471E-003  5.854446445196590E-003
5.928086316104734E-003  6.002652462560554E-003  6.078156535676143E-003  6.154610333116536E-003
6.232025800943129E-003  6.310415035480275E-003  6.389790285205354E-003  6.470163952662626E-003
6.551548596401152E-003  6.633956932937096E-003  6.717401838740700E-003  6.801896352248268E-003
6.887453675899440E-003  6.974087178200107E-003  7.061810395811256E-003  7.150637035664115E-003
7.240580977101882E-003  7.331656274048398E-003  7.423877157204104E-003  7.517258036269618E-003
7.611813502197279E-003  7.707558329471014E-003  7.804507478414879E-003  7.902676097530639E-003
8.002079525864757E-003  8.102733295405149E-003  8.204653133508088E-003  8.307854965355634E-003
8.412354916443978E-003  8.518169315103087E-003  8.625314695048028E-003  8.733807797962411E-003
8.843665576114297E-003  8.954905195005027E-003  9.067544036051372E-003  9.181599699301412E-003
9.297090006184578E-003  9.414033002296289E-003  9.532446960217605E-003  9.652350382370370E-003
9.773762003908238E-003  9.896700795644092E-003  1.002118596701426E-002  1.014723696908003E-002
1.027487349756694E-002  1.040411549594223E-002  1.053498315853110E-002  1.066749693367209E-002
1.080167752691215E-002  1.093754590424197E-002  1.107512329537194E-002  1.121443119704933E-002
1.135549137641720E-002  1.149832587441555E-002  1.164295700922531E-002  1.178940737975554E-002
1.193769986917459E-002  1.208785764848564E-002  1.223990418014721E-002  1.239386322173919E-002
1.254975882967509E-002  1.270761536296081E-002  1.286745748700083E-002  1.302931017745224E-002
1.319319872412722E-002  1.335914873494461E-002  1.352718613993124E-002  1.369733719527351E-002
1.386962848741999E-002  1.404408693723560E-002  1.422073980420807E-002  1.439961469070727E-002
1.458073954629815E-002  1.476414267210787E-002  1.494985272524799E-002  1.513789872329214E-002
1.532831004881010E-002  1.552111645395888E-002  1.571634806513154E-002  1.591403538766454E-002
1.611420931060422E-002  1.631690111153329E-002  1.652214246145804E-002  1.672996542975695E-002
1.694040248919164E-002  1.715348652098077E-002  1.736925081993786E-002  1.758772909967357E-002
1.780895549786362E-002  1.803296458158281E-002  1.825979135270623E-002  1.848947125337834E-002
1.872204017155091E-002  1.895753444659057E-002  1.919599087495692E-002  1.943744671595202E-002
1.968193969754229E-002  1.992950802225351E-002  2.018019037314011E-002  2.043402591982943E-002
2.069105432464207E-002  2.095131574878921E-002  2.121485085864789E-002  2.148170083211518E-002
2.175190736504234E-002  2.202551267774989E-002  2.230255952162460E-002  2.258309118579947E-002
2.286715150391777E-002  2.315478486098215E-002  2.344603620028983E-002  2.374095103045513E-002
2.403957543252029E-002  2.434195606715567E-002  2.464814018195063E-002  2.495817561879607E-002
2.527211082135973E-002  2.558999484265575E-002  2.591187735270918E-002  2.623780864631709E-002
2.656783965090723E-002  2.690202193449551E-002  2.724040771374365E-002  2.758304986211809E-002
2.793000191815165E-002  2.828131809380894E-002  2.863705328295718E-002  2.899726306994342E-002
2.936200373827974E-002  2.973133227943761E-002  3.010530640175302E-002  3.048398453944342E-002
3.086742586173826E-002  3.125569028212425E-002  3.164883846770703E-002  3.204693184869045E-002
3.245003262797522E-002  3.285820379087821E-002  3.327150911497406E-002  3.369001318006053E-002
3.411378137824925E-002  3.454287992418336E-002  3.497737586538365E-002  3.541733709272494E-002
3.586283235104409E-002  3.631393124988159E-002  3.677070427435816E-002  3.723322279618817E-002
3.770155908483167E-002  3.817578631878658E-002  3.865597859702305E-002  3.914221095056151E-002
3.963455935419643E-002  4.013310073836759E-002  4.063791300118055E-002  4.114907502057841E-002
4.166666666666669E-002  4.219076881419312E-002  4.272146335518456E-002  4.325883321174273E-002
4.380296234900102E-002  4.435393578824415E-002  4.491183962019300E-002  4.547676101845635E-002
4.604878825315201E-002  4.662801070469921E-002  4.721451887778445E-002  4.780840441550303E-002
4.840976011367848E-002  4.901867993536212E-002  4.963525902551494E-002  5.025959372587421E-002
5.089178159000710E-002  5.153192139855355E-002  5.218011317466104E-002  5.283645819961333E-002
5.350105902865592E-002  5.417401950702048E-002  5.485544478615093E-002  5.554544134013347E-002
5.624411698233348E-002  5.695158088224154E-002  5.766794358253133E-002  5.839331701633224E-002
5.912781452471907E-002  5.987155087442187E-002  6.062464227575842E-002  6.138720640079234E-002
6.215936240171963E-002  6.294123092948638E-002  6.373293415264081E-002  6.453459577642225E-002
6.534634106209039E-002  6.616829684649767E-002  6.700059156190764E-002  6.784335525606294E-002
6.869671961250537E-002  6.956081797115181E-002  7.043578534912884E-002  7.132175846186938E-002
7.221887574447483E-002  7.312727737334580E-002  7.404710528808496E-002  7.497850321367540E-002
7.592161668293791E-002  7.687659305927086E-002  7.784358155967597E-002  7.882273327807376E-002
7.981420120891237E-002  8.081814027107312E-002  8.183470733207700E-002  8.286406123259553E-002
8.390636281126990E-002  8.496177492984235E-002  8.603046249860363E-002  8.711259250216069E-002
8.820833402552815E-002  8.931785828054833E-002  9.044133863264348E-002  9.157895062790428E-002
9.273087202051954E-002  9.389728280055039E-002  9.507836522205436E-002  9.627430383156271E-002
9.748528549691633E-002  9.871149943646419E-002  9.995313724862913E-002  1.012103929418454E-001
1.024834629648729E-001  1.037725462374930E-001  1.050778441815896E-001  1.063995607526220E-001
1.077379024714936E-001  1.090930784568209E-001  1.104653004576087E-001  1.118547828863363E-001
1.132617428524603E-001  1.146864001963377E-001  1.161289775235771E-001  1.175897002398209E-001
1.190687965859652E-001  1.205664976738234E-001  1.220830375222376E-001  1.236186530936445E-001
1.251735843311015E-001  1.267480741957777E-001  1.283423687049180E-001  1.299567169702831E-001
1.315913712370737E-001  1.332465869233449E-001  1.349226226599151E-001  1.366197403307781E-001
1.383382051140229E-001  1.400782855232679E-001  1.418402534496175E-001  1.436243842041448E-001
1.454309565609101E-001  1.472602528005196E-001  1.491125587542325E-001  1.509881638486227E-001
1.528873611508019E-001  1.548104474142127E-001  1.567577231249963E-001  1.587294925489443E-001
1.607260637790407E-001  1.627477487836022E-001  1.647948634550241E-001  1.668677276591386E-001
1.689666652851949E-001  1.710920042964673E-001  1.732440767815004E-001  1.754232190059984E-001
1.776297714653675E-001  1.798640789379186E-001  1.821264905387400E-001  1.844173597742473E-001
1.867370445974195E-001  1.890859074637294E-001  1.914643153877788E-001  1.938726400006447E-001
1.963112576079477E-001  1.987805492486502E-001  2.012809007545950E-001  2.038127028107920E-001
2.063763510164632E-001  2.089722459468567E-001  2.116007932158368E-001  2.142624035392620E-001
2.169574927991605E-001  2.196864821087122E-001  2.224497978780491E-001  2.252478718808821E-001
2.280811413219667E-001  2.309500489054177E-001  2.338550429038817E-001  2.367965772285811E-001
2.397751115002389E-001  2.427911111208948E-001  2.458450473466258E-001  2.489373973611803E-001
2.520686443505396E-001  2.552392775784162E-001  2.584497924627028E-001  2.617006906528820E-001
2.649924801084098E-001  2.683256751780859E-001  2.717007966804215E-001  2.751183719850179E-001
2.785789350949697E-001  2.820830267303033E-001  2.856311944124659E-001  2.892239925498766E-001
2.928619825245540E-001  2.965457327798333E-001  3.002758189091863E-001  3.040528237461598E-001
3.078773374554439E-001  3.117499576250868E-001  3.156712893598687E-001  3.196419453758514E-001
3.236625460961157E-001  3.277337197477040E-001  3.318561024597824E-001  3.360303383630365E-001
3.402570796903190E-001  3.445369868785614E-001  3.488707286719695E-001  3.532589822265157E-001
3.577024332157457E-001  3.622017759379170E-001  3.667577134244839E-001  3.713709575499475E-001
3.760422291430887E-001  3.807722580995970E-001  3.855617834961207E-001  3.904115537057473E-001
3.953223265149388E-001  4.002948692419379E-001  4.053299588566620E-001  4.104283821021079E-001
4.155909356172803E-001  4.208184260616690E-001  4.261116702412919E-001  4.314714952363206E-001
4.368987385303158E-001  4.423942481410838E-001  4.479588827531817E-001  4.535935118520893E-001
4.592990158600669E-001  4.650762862737239E-001  4.709262258033162E-001  4.768497485137970E-001
4.828477799676416E-001  4.889212573694672E-001  4.950711297124752E-001  5.012983579267308E-001
5.076039150293116E-001  5.139887862763443E-001  5.204539693169505E-001  5.270004743491347E-001
5.336293242776268E-001  5.403415548737142E-001  5.471382149370844E-001  5.540203664596995E-001
5.609890847917374E-001  5.680454588096152E-001  5.751905910861292E-001  5.824255980627350E-001
5.897516102239920E-001  5.971697722742056E-001  6.046812433162886E-001  6.122871970328728E-001
6.199888218697018E-001  6.277873212213246E-001  6.356839136191319E-001  6.436798329217511E-001
6.517763285078407E-001  6.599746654713093E-001  6.682761248189865E-001  6.766820036707851E-001
6.851936154623776E-001  6.938122901504230E-001  7.025393744203767E-001  7.113762318969109E-001
7.203242433569854E-001  7.293848069455954E-001  7.385593383942354E-001  7.478492712421104E-001
7.572560570601278E-001  7.667811656777106E-001  7.764260854124591E-001  7.861923233027038E-001
7.960814053429858E-001  8.060948767224924E-001  8.162343020665001E-001  8.265012656808471E-001
8.368973717994864E-001  8.474242448351509E-001  8.580835296331681E-001  8.688768917284757E-001
8.798060176058594E-001  8.908726149634730E-001  9.020784129796695E-001  9.134251625831863E-001
9.249146367267352E-001  9.365486306640260E-001  9.483289622302807E-001  9.602574721262745E-001
9.723360242059468E-001  9.845665057676345E-001  9.969508278489646E-001  1.009490925525458E+000
1.022188758212890E+000  1.035046309973452E+000  1.048065589825766E+000  1.061248632058796E+000
1.074597496549711E+000  1.088114269085749E+000  1.101801061690117E+000  1.115660012952006E+000
1.129693288360746E+000  1.143903080644171E+000  1.158291610111237E+000  1.172861124998944E+000
1.187613901823637E+000  1.202552245736710E+000  1.217678490884790E+000  1.232995000774457E+000
1.248504168641543E+000  1.264208417825081E+000  1.280110202145956E+000  1.296212006290320E+000
1.312516346197831E+000  1.329025769454771E+000  1.345742855692112E+000  1.362670216988590E+000
1.379810498278847E+000  1.397166377766706E+000  1.414740567343649E+000  1.432535813012550E+000
1.450554895316752E+000  1.468800629774523E+000  1.487275867318996E+000  1.505983494743623E+000
1.524926435153250E+000  1.544107648420858E+000  1.563530131650042E+000  1.583196919643324E+000
1.603111085376340E+000  1.623275740477999E+000  1.643694035716690E+000  1.664369161492582E+000
1.685304348336142E+000  1.706502867412909E+000  1.727968031034615E+000  1.749703193176750E+000
1.771711750002617E+000  1.793997140393998E+000  1.816562846488480E+000  1.839412394223552E+000
1.862549353887536E+000  1.885977340677449E+000  1.909700015263896E+000  1.933721084363041E+000
1.958044301315804E+000  1.982673466674321E+000  2.007612428795785E+000  2.032865084443768E+000
2.058435379397092E+000  2.084327309066365E+000  2.110544919118278E+000  2.137092306107739E+000
2.163973618117978E+000  2.191193055408686E+000  2.218754871072318E+000  2.246663371698649E+000
2.274922918047678E+000  2.303537925731018E+000  2.332512865901840E+000  2.361852265953492E+000
2.391560710226927E+000  2.421642840727002E+000  2.452103357847809E+000  2.482947021107125E+000
2.514178649890083E+000  2.545803124202224E+000  2.577825385431998E+000  2.610250437122869E+000
2.643083345755139E+000  2.676329241537579E+000  2.709993319209042E+000  2.744080838850156E+000
2.778597126705217E+000  2.813547576014423E+000  2.848937647856590E+000  2.884772872002443E+000
2.921058847778663E+000  2.957801244942789E+000  2.995005804569128E+000  3.032678339945820E+000
3.070824737483160E+000  3.109450957633374E+000  3.148563035821945E+000  3.188167083390662E+000
3.228269288552537E+000  3.268875917358715E+000  3.309993314677559E+000  3.351627905186055E+000
3.393786194373673E+000  3.436474769558876E+000  3.479700300918386E+000  3.523469542529420E+000
3.567789333425027E+000  3.612666598662704E+000  3.658108350406452E+000  3.704121689022430E+000
3.750713804188412E+000  3.797891976017185E+000  3.845663576194079E+000  3.894036069128819E+000
3.943017013121839E+000  3.992614061545290E+000  4.042834964038893E+000  4.093687567720836E+000
4.145179818413911E+000  4.197319761887047E+000  4.250115545112490E+000  4.303575417538785E+000
4.357707732379759E+000  4.412520947919747E+000  4.468023628835190E+000  4.524224447532904E+000
4.581132185505150E+000  4.638755734701765E+000  4.697104098919551E+000  4.756186395209126E+000
4.816011855299490E+000  4.876589827040497E+000  4.937929775863473E+000  5.000041286260227E+000
5.062934063280624E+000  5.126617934049027E+000  5.191102849299811E+000  5.256398884932174E+000
5.322516243584539E+000  5.389465256228707E+000  5.457256383784113E+000  5.525900218752361E+000
5.595407486872314E+000  5.665789048796040E+000  5.737055901785780E+000  5.809219181432304E+000
5.882290163394875E+000  5.956280265163084E+000  6.031201047840875E+000  6.107064217952966E+000
6.183881629274031E+000  6.261665284680874E+000  6.340427338027901E+000  6.420180096046199E+000
6.500936020266463E+000  6.582707728966150E+000  6.665507999141112E+000  6.749349768502015E+000
6.834246137495910E+000  6.920210371353171E+000  7.007255902160233E+000  7.095396330958381E+000
7.184645429868930E+000  7.275017144245179E+000  7.366525594851352E+000  7.459185080069035E+000
7.553010078131307E+000  7.648015249385000E+000  7.744215438581423E+000  7.841625677195854E+000
7.940261185776257E+000  8.040137376321525E+000  8.141269854689623E+000  8.243674423036065E+000
8.347367082282993E+000  8.452364034619377E+000  8.558681686032640E+000  8.666336648872109E+000
8.775345744444772E+000  8.885726005643585E+000  8.997494679608929E+000  9.110669230423508E+000
9.225267341841132E+000  9.341306920049879E+000  9.458806096469921E+000  9.577783230586627E+000
9.698256912819263E+000  9.820245967425775E+000  9.943769455444153E+000  1.006884667767070E+001
1.019549717767586E+001  1.032374074485793E+001  1.045359741753519E+001  1.058508748607696E+001
1.071823149607396E+001  1.085305025154863E+001  1.098956481820580E+001  1.112779652672426E+001
1.126776697608970E+001  1.140949803696961E+001  1.155301185513059E+001  1.169833085489873E+001
1.184547774266337E+001  1.199447551042513E+001  1.214534743938834E+001  1.229811710359886E+001
1.245280837362752E+001  1.260944542029999E+001  1.276805271847351E+001  1.292865505086110E+001
1.309127751190394E+001  1.325594551169242E+001  1.342268477993652E+001  1.359152136998617E+001
1.376248166290204E+001  1.393559237157772E+001  1.411088054491365E+001  1.428837357204352E+001
1.446809918661395E+001  1.465008547111787E+001  1.483436086128248E+001  1.502095415051240E+001
1.520989449438870E+001  1.540121141522454E+001  1.559493480667801E+001  1.579109493842316E+001
1.598972246087968E+001  1.619084841000203E+001  1.639450421212900E+001  1.660072168889400E+001
1.680953306219731E+001  1.702097095924086E+001  1.723506841762620E+001  1.745185889051683E+001
1.767137625186519E+001  1.789365480170560E+001  1.811872927151369E+001  1.834663482963329E+001
1.857740708677155E+001  1.881108210156315E+001  1.904769638620456E+001  1.928728691215915E+001
1.952989111593404E+001  1.977554690492969E+001  2.002429266336289E+001  2.027616725826448E+001
2.053121004555237E+001  2.078946087618092E+001  2.105096010236788E+001  2.131574858389934E+001
2.158386769451427E+001  2.185535932836919E+001  2.213026590658421E+001  2.240863038387154E+001
2.269049625524706E+001  2.297590756282663E+001  2.326490890270775E+001  2.355754543193772E+001
2.385386287556964E+001  2.415390753380693E+001  2.445772628923789E+001  2.476536661416118E+001
2.507687657800343E+001  2.539230485483032E+001  2.571170073095182E+001  2.603511411262339E+001
2.636259553384392E+001  2.669419616425170E+001  2.702996781711994E+001  2.736996295745249E+001
2.771423471018177E+001  2.806283686846956E+001  2.841582390211231E+001  2.877325096605224E+001
2.913517390899524E+001  2.950164928213750E+001  2.987273434800166E+001  3.024848708938422E+001
3.062896621841555E+001  3.101423118573362E+001  3.140434218977342E+001  3.179936018617299E+001
3.219934689729791E+001  3.260436482188566E+001  3.301447724481092E+001  3.342974824697416E+001
3.385024271531433E+001  3.427602635294760E+001  3.470716568943367E+001  3.514372809117098E+001
3.558578177192302E+001  3.603339580347674E+001  3.648664012643525E+001  3.694558556114618E+001
3.741030381876743E+001  3.788086751247221E+001  3.835735016879504E+001  3.883982623912035E+001
3.932837111131579E+001  3.982306112151156E+001  4.032397356602823E+001  4.083118671345434E+001
4.134477981687609E+001  4.186483312626088E+001  4.239142790099630E+001  4.292464642258728E+001
4.346457200751266E+001  4.401128902024355E+001  4.456488288642555E+001  4.512544010622651E+001
4.569304826785248E+001  4.626779606123355E+001  4.684977329188169E+001  4.743907089492333E+001
4.803578094930786E+001  4.863999669219526E+001  4.925181253352466E+001  4.987132407076598E+001
5.049862810385739E+001  5.113382265033028E+001  5.177700696062487E+001  5.242828153359819E+001
5.308774813222725E+001  5.375550979950989E+001  5.443167087456512E+001  5.511633700893660E+001
5.580961518310080E+001  5.651161372318285E+001  5.722244231788296E+001  5.794221203561521E+001
5.867103534186236E+001  5.940902611674884E+001  6.015629967283460E+001  6.091297277313325E+001
6.167916364935610E+001  6.245499202038638E+001  6.324057911098554E+001  6.403604767073467E+001
6.484152199321478E+001  6.565712793542743E+001  6.648299293746044E+001  6.731924604240064E+001
6.816601791649695E+001  6.902344086957764E+001  6.989164887572348E+001  7.077077759420182E+001
7.166096439066351E+001  7.256234835860661E+001  7.347507034110993E+001  7.439927295284029E+001
7.533510060233603E+001  7.628269951457135E+001  7.724221775380417E+001  7.821380524671146E+001
7.919761380581586E+001  8.019379715320621E+001  8.120251094455729E+001  8.222391279345125E+001
8.325816229600495E+001  8.430542105580754E+001  8.536585270917082E+001  8.643962295069805E+001
8.752689955917414E+001  8.862785242378112E+001  8.974265357064417E+001  9.087147718971046E+001
9.201449966196712E+001  9.317189958700091E+001  9.434385781090479E+001  9.553055745453577E+001
9.673218394212745E+001  9.794892503026324E+001  9.918097083721365E+001
</PP_R>
<PP_RAB type="real" size="1183" columns="4">
4.749385237263106E-007  4.809125149317825E-007  4.869616496961365E-007  4.930868732089864E-007