<UPF version="2.0.1">
<PP_INFO>
Generated in analytical, separable form
Author: Goedecker/Hartwigsen/Hutter/Teter
Generation date: Phys.Rev.B58, 3641 (1998); B54, 1703 (1996)
Pseudopotential type: NC
Element: Mn
Functional: SLA-PW-PBX-PBC

Suggested minimum cutoff for wavefunctions:   0. Ry
Suggested minimum cutoff for charge density:   0. Ry
The Pseudo was generated with a Non-Relativistic Calculation
Local Potential: unknown format, L component and cutoff radius: -3   0.0000

Valence configuration:
nl pn  l   occ       Rcut    Rcut US       E pseu

Generation configuration: not available.
Converted from CPMD format using cpmd2upf v.5.0.1 - PG 10Jul2012
Atomic orbitals could not be generated by ld1.x - use with care
</PP_INFO>
<!--                               -->
<!-- END OF HUMAN READABLE SECTION -->
<!--                               -->
<PP_HEADER generated="Generated in analytical, separable form"
author="Goedecker/Hartwigsen/Hutter/Teter"
date="Phys.Rev.B58, 3641 (1998); B54, 1703 (1996)"
comment="Atomic orbitals could not be generated by ld1.x - use with care"
element="Mn"
pseudo_type="NC"
relativistic="no"
is_ultrasoft="F"
is_paw="F"
is_coulomb="F"
has_so="F"
has_wfc="F"
has_gipaw="F"
paw_as_gipaw="F"
core_correction="F"
functional="SLA-PW-PBX-PBC"
z_valence="1.500000000000000E+001"
total_psenergy="0.000000000000000E+000"
wfc_cutoff="0.000000000000000E+000"
rho_cutoff="0.000000000000000E+000"
l_max="2"
l_max_rho="0"
l_local="-3"
mesh_size="1187"
number_of_wfc="0"
number_of_proj="5"/>
<PP_MESH dx="1.250000000000000E-002" mesh="1187" xmin="-7.000000000000000E+000" rmax="1.000954444336090E+002"
zmesh="2.500000000000000E+001">
<PP_R type="real" size="1187" columns="4">
3.647527862218065E-005  3.693408114676089E-005  3.739865469666329E-005  3.786907186245016E-005
3.834540614776079E-005  3.882773198079636E-005  3.931612472594955E-005  3.981066069558045E-005
4.031141716194042E-005  4.081847236924618E-005  4.133190554590548E-005  4.185179691689674E-005
4.237822771630440E-005  4.291128020001187E-005  4.345103765855432E-005  4.399758443013273E-005
4.455100591379213E-005  4.511138858276529E-005  4.567881999798430E-005  4.625338882176231E-005
4.683518483164698E-005  4.742429893444852E-005  4.802082318044403E-005  4.862485077776059E-005
4.923647610693924E-005  4.985579473568198E-005  5.048290343378458E-005  5.111790018825698E-005
5.176088421863392E-005  5.241195599247840E-005  5.307121724107966E-005  5.373877097534907E-005
5.441472150191575E-005  5.509917443942469E-005  5.579223673503995E-005  5.649401668115527E-005
5.720462393231498E-005  5.792416952234782E-005  5.865276588171612E-005  5.939052685508347E-005
6.013756771910289E-005  6.089400520042926E-005  6.165995749395801E-005  6.243554428129329E-005
6.322088674944869E-005  6.401610760978257E-005  6.482133111717226E-005  6.563668308942904E-005
6.646229092695736E-005  6.729828363266165E-005  6.814479183210296E-005  6.900194779390969E-005
6.986988545044478E-005  7.074874041873283E-005  7.163865002165078E-005  7.253975330938460E-005
7.345219108115628E-005  7.437610590722404E-005  7.531164215115909E-005  7.625894599240306E-005
7.721816544910837E-005  7.818945040126668E-005  7.917295261412787E-005  8.016882576191357E-005
8.117722545182936E-005  8.219830924837836E-005  8.323223669798118E-005  8.427916935390537E-005
8.533927080150832E-005  8.641270668379818E-005  8.749964472731541E-005  8.860025476834067E-005
8.971470877943213E-005  9.084318089629627E-005  9.198584744499744E-005  9.314288696950855E-005
9.431448025960932E-005  9.550081037913494E-005  9.670206269458014E-005  9.791842490406332E-005
9.915008706665434E-005  1.003972416320719E-004  1.016600834707543E-004  1.029388099043080E-004
1.042336207363399E-004  1.055447182836769E-004  1.068723074079780E-004  1.082165955477451E-004
1.095777927507347E-004  1.109561117067795E-004  1.123517677810205E-004  1.137649790475587E-004
1.151959663235297E-004  1.166449532036067E-004  1.181121660949379E-004  1.195978342525224E-004
1.211021898150326E-004  1.226254678410857E-004  1.241679063459723E-004  1.257297463388472E-004
1.273112318603867E-004  1.289126100209211E-004  1.305341310390459E-004  1.321760482807193E-004
1.338386182988509E-004  1.355221008733885E-004  1.372267590519094E-004  1.389528591907221E-004
1.407006709964851E-004  1.424704675683492E-004  1.442625254406292E-004  1.460771246260137E-004
1.479145486593173E-004  1.497750846417832E-004  1.516590232859443E-004  1.535666589610465E-004
1.554982897390452E-004  1.574542174411793E-004  1.594347476851316E-004  1.614401899327823E-004
1.634708575385627E-004  1.655270677984175E-004  1.676091419993832E-004  1.697174054697896E-004
1.718521876300936E-004  1.740138220443508E-004  1.762026464723363E-004  1.784190029223201E-004
1.806632377045066E-004  1.829357014851469E-004  1.852367493413298E-004  1.875667408164644E-004
1.899260399764591E-004  1.923150154666076E-004  1.947340405691905E-004  1.971834932618021E-004
1.996637562764087E-004  2.021752171591526E-004  2.047182683309062E-004  2.072933071485890E-004
2.099007359672554E-004  2.125409622029630E-004  2.152143983964328E-004  2.179214622775092E-004
2.206625768304309E-004  2.234381703599240E-004  2.262486765581243E-004  2.290945345723434E-004
2.319761890736859E-004  2.348940903265301E-004  2.378486942588838E-004  2.408404625336224E-004
2.438698626206255E-004  2.469373678698203E-004  2.500434575851424E-004  2.531886170994299E-004
2.563733378502553E-004  2.595981174567155E-004  2.628634597971848E-004  2.661698750880470E-004
2.695178799634187E-004  2.729079975558731E-004  2.763407575781813E-004  2.798166964060806E-004
2.833363571620848E-004  2.869002898003480E-004  2.905090511925957E-004  2.941632052151374E-004
2.978633228369738E-004  3.016099822090108E-004  3.054037687543985E-004  3.092452752600028E-004
3.131351019690310E-004  3.170738566748201E-004  3.210621548158062E-004  3.251006195716884E-004
3.291898819608012E-004  3.333305809387123E-004  3.375233634980615E-004  3.417688847696536E-004
3.460678081248253E-004  3.504208052790971E-004  3.548285563971303E-004  3.592917501990050E-004
3.638110840678326E-004  3.683872641587256E-004  3.730210055091330E-004  3.777130321505685E-004
3.824640772217405E-004  3.872748830831074E-004  3.921462014328731E-004  3.970787934244404E-004
4.020734297853435E-004  4.071308909376751E-004  4.122519671200296E-004  4.174374585109802E-004
4.226881753541062E-004  4.280049380845971E-004  4.333885774574465E-004  4.388399346772591E-004
4.443598615296922E-004  4.499492205145466E-004  4.556088849805351E-004  4.613397392617453E-004
4.671426788158177E-004  4.730186103638647E-004  4.789684520321449E-004  4.849931334955240E-004
4.910935961227379E-004  4.972707931234833E-004  5.035256896973599E-004  5.098592631846827E-004
5.162725032191950E-004  5.227664118826996E-004  5.293420038616372E-004  5.360003066056332E-004
5.427423604880373E-004  5.495692189684858E-004  5.564819487575052E-004  5.634816299831889E-004
5.705693563599702E-004  5.777462353595152E-004  5.850133883837688E-004  5.923719509401765E-004
5.998230728191081E-004  6.073679182735178E-004  6.150076662008573E-004  6.227435103272836E-004
6.305766593941800E-004  6.385083373470243E-004  6.465397835266350E-004  6.546722528628171E-004
6.629070160704502E-004  6.712453598480390E-004  6.796885870787627E-004  6.882380170340554E-004
6.968949855797406E-004  7.056608453847665E-004  7.145369661325621E-004  7.235247347350519E-004
7.326255555493671E-004  7.418408505972754E-004  7.511720597873764E-004  7.606206411400903E-004
7.701880710154772E-004  7.798758443439198E-004  7.896854748597113E-004  7.996184953375771E-004
8.096764578321757E-004  8.198609339206103E-004  8.301735149479897E-004  8.406158122760812E-004
8.511894575350870E-004  8.618961028785909E-004  8.727374212417109E-004  8.837151066024977E-004
8.948308742466241E-004  9.060864610353988E-004  9.174836256771572E-004  9.290241490020630E-004
9.407098342403643E-004  9.525425073041552E-004  9.645240170726750E-004  9.766562356812013E-004
9.889410588135759E-004  1.001380405998406E-003  1.013976220908998E-003  1.026730471667057E-003
1.039645151150214E-003  1.052722277303413E-003  1.065963893454219E-003  1.079372068632099E-003
1.092948897891703E-003  1.106696502640223E-003  1.120617030968873E-003  1.134712657988524E-003
1.148985586169577E-003  1.163438045686099E-003  1.178072294764292E-003  1.192890620035348E-003
1.207895336892740E-003  1.223088789854004E-003  1.238473352927076E-003  1.254051429981235E-003
1.269825455122718E-003  1.285797893075043E-003  1.301971239564137E-003  1.318348021708295E-003
1.334930798413043E-003  1.351722160770982E-003  1.368724732466641E-003  1.385941170186441E-003
1.403374164033802E-003  1.421026437949478E-003  1.438900750137187E-003  1.456999893494569E-003
1.475326696049601E-003  1.493884021402465E-003  1.512674769173003E-003  1.531701875453786E-003
1.550968313268880E-003  1.570477093038393E-003  1.590231263048853E-003  1.610233909929514E-003
1.630488159134649E-003  1.650997175431902E-003  1.671764163396797E-003  1.692792367913453E-003
1.714085074681607E-003  1.735645610730015E-003  1.757477344936297E-003  1.779583688553341E-003
1.801968095742313E-003  1.824634064112376E-003  1.847585135267205E-003  1.870824895358359E-003
1.894356975645637E-003  1.918185053064459E-003  1.942312850800399E-003  1.966744138870943E-003
1.991482734714558E-003  2.016532503787175E-003  2.041897360166177E-003  2.067581267161975E-003
2.093588237937297E-003  2.119922336134233E-003  2.146587676509206E-003  2.173588425575900E-003
2.200928802256289E-003  2.228613078539857E-003  2.256645580151095E-003  2.285030687225412E-003
2.313772834993540E-003  2.342876514474541E-003  2.372346273177550E-003  2.402186715812319E-003
2.432402505008719E-003  2.462998362045289E-003  2.493979067586937E-003  2.525349462431936E-003
2.557114448268304E-003  2.589278988439702E-003  2.621848108720974E-003  2.654826898103424E-003
2.688220509589992E-003  2.722034161000409E-003  2.756273135786503E-003  2.790942783857747E-003
2.826048522417184E-003  2.861595836807890E-003  2.897590281370060E-003  2.934037480308885E-003
2.970943128573356E-003  3.008312992746096E-003  3.046152911944414E-003  3.084468798732670E-003
3.123266640046127E-003  3.162552498126428E-003  3.202332511468822E-003  3.242612895781331E-003
3.283399944955953E-003  3.324700032052103E-003  3.366519610292416E-003  3.408865214071073E-003
3.451743459974821E-003  3.495161047816817E-003  3.539124761683493E-003  3.583641470994589E-003
3.628718131576501E-003  3.674361786749157E-003  3.720579568426541E-003  3.767378698231068E-003
3.814766488621986E-003  3.862750344037953E-003  3.911337762054003E-003  3.960536334553053E-003
4.010353748912150E-003  4.060797789203643E-003  4.111876337411456E-003  4.163597374662668E-003
4.215968982474575E-003  4.268999344017448E-003  4.322696745393173E-003  4.377069576929957E-003
4.432126334493356E-003  4.487875620813752E-003  4.544326146830551E-003  4.601486733053297E-003
4.659366310939879E-003  4.717973924292101E-003  4.777318730668787E-003  4.837410002816667E-003
4.898257130119278E-003  4.959869620064049E-003  5.022257099727890E-003  5.085429317281426E-003
5.149396143512170E-003  5.214167573366868E-003  5.279753727513209E-003  5.346164853921218E-003
5.413411329464509E-003  5.481503661541699E-003  5.550452489718211E-003  5.620268587388726E-003
5.690962863460544E-003  5.762546364058132E-003  5.835030274249097E-003  5.908425919791874E-003
5.982744768905404E-003  6.057998434061063E-003  6.134198673797140E-003  6.211357394556121E-003
6.289486652545107E-003  6.368598655619612E-003  6.448705765191072E-003  6.529820498158337E-003
6.611955528863463E-003  6.695123691072102E-003  6.779337979978805E-003  6.864611554237550E-003
6.950957738017806E-003  7.038390023086463E-003  7.126922070915940E-003  7.216567714818834E-003
7.307340962109388E-003  7.399255996292173E-003  7.492327179278284E-003  7.586569053629413E-003
7.681996344830166E-003  7.778623963588943E-003  7.876467008167763E-003  7.975540766741410E-003
8.075860719786219E-003  8.177442542498962E-003  8.280302107246108E-003  8.384455486043914E-003
8.489918953069726E-003  8.596708987204826E-003  8.704842274609319E-003  8.814335711329356E-003
8.925206405937195E-003  9.037471682204437E-003  9.151149081808901E-003  9.266256367075554E-003
9.382811523751908E-003  9.500832763818327E-003  9.620338528333690E-003  9.741347490316831E-003
9.863878557664262E-003  9.987950876104544E-003  1.011358383218986E-002  1.024079705632521E-002
1.036961042583566E-002  1.050004406807229E-002  1.063211836355707E-002  1.076585394916736E-002
1.090127172136051E-002  1.103839283943893E-002  1.117723872885630E-002  1.131783108456532E-002
1.146019187440761E-002  1.160434334254622E-002  1.175030801294132E-002  1.189810869286963E-002
1.204776847648809E-002  1.219931074844237E-002  1.235275918752080E-002  1.250813777035415E-002
1.266547077516213E-002  1.282478278554683E-002  1.298609869433399E-002  1.314944370746257E-002
1.331484334792319E-002  1.348232345974617E-002  1.365191021203975E-002  1.382363010307898E-002
1.399750996444622E-002  1.417357696522355E-002  1.435185861623807E-002  1.453238277436045E-002
1.471517764685770E-002  1.490027179580052E-002  1.508769414252628E-002  1.527747397215796E-002
1.546964093818005E-002  1.566422506707196E-002  1.586125676299972E-002  1.606076681256667E-002
1.626278638962397E-002  1.646734706014154E-002  1.667448078714034E-002  1.688421993568662E-002
1.709659727794907E-002  1.731164599831950E-002  1.752939969859798E-002  1.774989240324320E-002
1.797315856468887E-002  1.819923306872695E-002  1.842815123995864E-002  1.865994884731394E-002
1.889466210964059E-002  1.913232770136337E-002  1.937298275821451E-002  1.961666488303625E-002
1.986341215165639E-002  2.011326311883764E-002  2.036625682430198E-002  2.062243279883057E-002
2.088183107044065E-002  2.114449217063990E-002  2.141045714075962E-002  2.167976753836749E-002
2.195246544376106E-002  2.222859346654286E-002  2.250819475227823E-002  2.279131298923693E-002
2.307799241521948E-002  2.336827782446944E-002  2.366221457467261E-002  2.395984859404423E-002
2.426122638850535E-002  2.456639504894952E-002  2.487540225860081E-002  2.518829630046441E-002
2.550512606487094E-002  2.582594105711569E-002  2.615079140519390E-002  2.647972786763337E-002
2.681280184142558E-002  2.715006537005658E-002  2.749157115163890E-002  2.783737254714569E-002
2.818752358874855E-002  2.854207898826011E-002  2.890109414568290E-002  2.926462515786568E-002
2.963272882726873E-002  3.000546267083928E-002  3.038288492899875E-002  3.076505457474283E-002
3.115203132285621E-002  3.154387563924307E-002  3.194064875037510E-002  3.234241265285811E-002
3.274923012311928E-002  3.316116472721603E-002  3.357828083076831E-002  3.400064360901594E-002
3.442831905700233E-002  3.486137399988633E-002  3.529987610338383E-002  3.574389388434064E-002
3.619349672143840E-002  3.664875486603512E-002  3.710973945314213E-002  3.757652251253905E-002
3.804917698002858E-002  3.852777670883289E-002  3.901239648113333E-002  3.950311201975527E-002
4.000000000000001E-002  4.050313806162539E-002  4.101260482097717E-002  4.152847988327302E-002
4.205084385504098E-002  4.257977835671439E-002  4.311536603538528E-002  4.365769057771809E-002
4.420683672302592E-002  4.476289027651124E-002  4.532593812267307E-002  4.589606823888290E-002
4.647336970913134E-002  4.705793273794764E-002  4.764984866449434E-002  4.824920997683924E-002
4.885611032640681E-002  4.947064454261141E-002  5.009290864767459E-002  5.072299987162879E-002
5.136101666750968E-002  5.200705872673966E-002  5.266122699470489E-002  5.332362368652813E-002
5.399435230304014E-002  5.467351764695188E-002  5.536122583923007E-002  5.605758433567895E-002
5.676270194373031E-002  5.747668883944500E-002  5.819965658472807E-002  5.893171814476064E-002
5.967298790565084E-002  6.042358169230692E-002  6.118361678653517E-002  6.195321194536535E-002
6.273248741960677E-002  6.352156497263776E-002  6.432056789943134E-002  6.512962104582043E-002
6.594885082800515E-002  6.677838525230574E-002  6.761835393516369E-002  6.846888812339461E-002
6.933012071469584E-002  7.020218627841197E-002  7.108522107656157E-002  7.197936308512838E-002
7.288475201562039E-002  7.380152933690003E-002  7.472983829728892E-002  7.566982394695082E-002
7.662163316055587E-002  7.758541466023020E-002  7.856131903879392E-002  7.954949878329171E-002
8.055010829881910E-002  8.156330393264864E-002  8.258924399865948E-002  8.362808880207426E-002
8.468000066450702E-002  8.574514394932641E-002  8.682368508733773E-002  8.791579260278810E-002
8.902163713969875E-002  9.014139148852837E-002  9.127523061317218E-002  9.242333167830021E-002
9.358587407703968E-002  9.476303945900563E-002  9.595501175868396E-002  9.716197722417157E-002
9.838412444627803E-002  9.962164438799327E-002  1.008747304143260E-001  1.021435783225171E-001
1.034283863726339E-001  1.047293553185481E-001  1.060466884393043E-001  1.073805915708829E-001
1.087312731383619E-001  1.100989441884842E-001  1.114838184226341E-001  1.128861122302281E-001
1.143060447225266E-001  1.157438377668705E-001  1.171997160213481E-001  1.186739069698987E-001
1.201666409578574E-001  1.216781512279466E-001  1.232086739567213E-001  1.247584482914717E-001
1.263277163875908E-001  1.279167234464111E-001  1.295257177535185E-001  1.311549507175470E-001
1.328046769094620E-001  1.344751541023372E-001  1.361666433116328E-001  1.378794088359790E-001
1.396137182984737E-001  1.413698426884988E-001  1.431480564040632E-001  1.449486372946777E-001
1.467718667047699E-001  1.486180295176442E-001  1.504874141999965E-001  1.523803128469865E-001
1.542970212278791E-001  1.562378388322582E-001  1.582030689168231E-001  1.601930185527730E-001
1.622079986737870E-001  1.642483241246086E-001  1.663143137102404E-001  1.684062902457585E-001
1.705245806067528E-001  1.726695157804018E-001  1.748414309171904E-001  1.770406653832775E-001
1.792675628135227E-001  1.815224711651802E-001  1.838057427722676E-001  1.861177344006189E-001
1.884588073036297E-001  1.908293272787042E-001  1.932296647244112E-001  1.956601946983603E-001
1.981212969758047E-001  2.006133561089825E-001  2.031367614872033E-001  2.056919073976915E-001
2.082791930871941E-001  2.108990228243638E-001  2.135518059629272E-001  2.162379570056468E-001
2.189578956690881E-001  2.217120469492010E-001  2.245008411877264E-001  2.273247141394378E-001
2.301841070402293E-001  2.330794666760591E-001  2.360112454527608E-001  2.389799014667331E-001
2.419858985765180E-001  2.450297064752796E-001  2.481118007641947E-001  2.512326630267667E-001
2.543927809040734E-001  2.575926481709625E-001  2.608327648132046E-001  2.641136371056172E-001
2.674357776911709E-001  2.707997056610912E-001  2.742059466359673E-001  2.776550328478815E-001
2.811475032235718E-001  2.846839034686399E-001  2.882647861528189E-001  2.918907107963134E-001
2.955622439572261E-001  2.992799593200833E-001  3.030444377854740E-001  3.068562675608174E-001
3.107160442522711E-001  3.146243709577958E-001  3.185818583613911E-001  3.225891248285150E-001
3.266467965027062E-001  3.307555074034190E-001  3.349158995250907E-001  3.391286229374551E-001
3.433943358871159E-001  3.477137049004003E-001  3.520874048875045E-001  3.565161192479496E-001
3.610005399773651E-001  3.655413677756131E-001  3.701393121562759E-001  3.747950915575174E-001
3.795094334543412E-001  3.842830744722603E-001  3.891167605023955E-001  3.940112468180236E-001
3.989672981925891E-001  4.039856890192023E-001  4.090672034316402E-001  4.142126354268678E-001
4.194227889891032E-001  4.246984782154404E-001  4.300405274430544E-001  4.354497713780058E-001
4.409270552256642E-001  4.464732348227749E-001  4.520891767711836E-001  4.577757585732451E-001
4.635338687689359E-001  4.693644070746885E-001  4.752682845239762E-001  4.812464236096616E-001
4.872997584281392E-001  4.934292348252904E-001  4.996358105442725E-001  5.059204553751693E-001
5.122841513065217E-001  5.187278926787656E-001  5.252526863396010E-001  5.318595518013115E-001
5.385495214000678E-001  5.453236404572306E-001  5.521829674426840E-001  5.591285741402257E-001
5.661615458150323E-001  5.732829813832374E-001  5.804939935836370E-001  5.877957091515580E-001
5.951892689949138E-001  6.026758283724717E-001  6.102565570743667E-001  6.179326396048811E-001
6.257052753675272E-001  6.335756788524570E-001  6.415450798262270E-001  6.496147235239538E-001
6.577858708438825E-001  6.660597985444060E-001  6.744377994435616E-001  6.829211826210344E-001
6.915112736227060E-001  7.002094146677716E-001  7.090169648584660E-001  7.179353003924259E-001
7.269658147777227E-001  7.361099190506022E-001  7.453690419959607E-001  7.547446303705957E-001
7.642381491292664E-001  7.738510816535927E-001  7.835849299838401E-001  7.934412150536133E-001
8.034214769275070E-001  8.135272750417448E-001  8.237601884478414E-001  8.341218160593367E-001
8.446137769016251E-001  8.552377103649341E-001  8.659952764604827E-001  8.768881560798589E-001
8.879180512576659E-001  8.990866854374651E-001  9.103958037410694E-001  9.218471732412236E-001
9.334425832377089E-001  9.451838455369291E-001  9.570727947350061E-001  9.691112885044396E-001
9.813012078843745E-001  9.936444575745139E-001  1.006142966232735E+000  1.018798686776444E+000
1.031613596687723E+000  1.044589698322319E+000  1.057729019222512E+000  1.071033612433925E+000
1.084505556826316E+000  1.098146957418405E+000  1.111959945706787E+000  1.125946679998986E+000
1.140109345750692E+000  1.154450155907241E+000  1.168971351249398E+000  1.183675200743479E+000
1.198564001895881E+000  1.213640081112077E+000  1.228905794060117E+000  1.244363526038707E+000
1.260015692349918E+000  1.275864738676581E+000  1.291913141464428E+000  1.308163408309047E+000
1.324618078347693E+000  1.341279722656038E+000  1.358150944649903E+000  1.375234380492048E+000
1.392532699504082E+000  1.410048604583543E+000  1.427784832626236E+000  1.445744154953878E+000
1.463929377747120E+000  1.482343342484024E+000  1.500988926384041E+000  1.519869042857591E+000
1.538986641961286E+000  1.558344710858879E+000  1.577946274288022E+000  1.597794395032878E+000
1.617892174402697E+000  1.638242752716393E+000  1.658849309793231E+000  1.679715065449680E+000
1.700843280002512E+000  1.722237254778238E+000  1.743900332628941E+000  1.765835898454610E+000
1.788047379732034E+000  1.810538247050351E+000  1.833312014653340E+000  1.856372240988520E+000
1.879722529263172E+000  1.903366528007348E+000  1.927307931643953E+000  1.951550481066018E+000
1.976097964221209E+000  2.000954216703711E+000  2.026123122353547E+000  2.051608613863429E+000
2.077414673393259E+000  2.103545333192339E+000  2.130004676229426E+000  2.156796836830702E+000
2.183926001325772E+000  2.211396408701777E+000  2.239212351265766E+000  2.267378175315353E+000
2.295898281817850E+000  2.324777127097922E+000  2.354019223533896E+000  2.383629140262840E+000
2.413611503894480E+000  2.443970999234135E+000  2.474712370014718E+000  2.505840419637954E+000
2.537360011924934E+000  2.569276071876076E+000  2.601593586440680E+000  2.634317605296150E+000
2.667453241637008E+000  2.701005672973846E+000  2.734980141942326E+000  2.769381957122346E+000
2.804216493867516E+000  2.839489195145077E+000  2.875205572386363E+000  2.911371206347987E+000
2.947991747983834E+000  2.985072919328039E+000  3.022620514389067E+000  3.060640400055036E+000
3.099138517010436E+000  3.138120880664366E+000  3.177593582090456E+000  3.217562788978613E+000
3.258034746598726E+000  3.299015778776521E+000  3.340512288881651E+000  3.382530760828243E+000
3.425077760088026E+000  3.468159934716196E+000  3.511784016390194E+000  3.555956821461533E+000
3.600685252020876E+000  3.645976296976498E+000  3.691837033146316E+000  3.738274626363666E+000
3.785296332596966E+000  3.832909499083478E+000  3.881121565477338E+000  3.929940065012003E+000
3.979372625677355E+000  4.029426971411564E+000  4.080110923307991E+000  4.131432400837234E+000
4.183399423084569E+000  4.236020110002957E+000  4.289302683681782E+000  4.343255469631588E+000
4.397886898084945E+000  4.453205505313694E+000  4.509219934962769E+000  4.565938939400762E+000
4.623371381087511E+000  4.681526233958876E+000  4.740412584828934E+000  4.800039634809818E+000
4.860416700749399E+000  4.921553216687066E+000  4.983458735327818E+000  5.046142929534886E+000
5.109615593841156E+000  5.173886645979559E+000  5.238966128432748E+000  5.304864210002266E+000
5.371591187397421E+000  5.439157486844199E+000  5.507573665714349E+000  5.576850414175012E+000
5.646998556859080E+000  5.718029054556561E+000  5.789953005927240E+000  5.862781649234847E+000
5.936526364103070E+000  6.011198673293640E+000  6.086810244506784E+000  6.163372892204351E+000
6.240898579455805E+000  6.319399419807504E+000  6.398887679175467E+000  6.479375777761934E+000
6.560876291996074E+000  6.643401956499044E+000  6.726965666073824E+000  6.811580477720046E+000
6.897259612674174E+000  6.984016458475372E+000  7.071864571057298E+000  7.160817676866274E+000
7.250889675006055E+000  7.342094639409599E+000  7.434446821038166E+000  7.527960650108019E+000
7.622650738345206E+000  7.718531881268664E+000  7.815619060502038E+000  7.913927446114623E+000
8.013472398991674E+000  8.114269473234602E+000  8.216334418591334E+000  8.319683182917226E+000
8.424331914666983E+000  8.530296965417842E+000  8.637594892424572E+000  8.746242461206567E+000
8.856256648167486E+000  8.967654643247883E+000  9.080453852611123E+000  9.194671901363161E+000
9.310326636306492E+000  9.427436128728745E+000  9.546018677226387E+000  9.666092810563871E+000
9.787677290568825E+000  9.910791115063613E+000  1.003545352083378E+001  1.016168398663388E+001
1.028950223623100E+001  1.041892824148668E+001  1.054998222547757E+001  1.068268466565529E+001
1.081705629704611E+001  1.095311811549082E+001  1.109089138092537E+001  1.123039762070278E+001
1.137165863295684E+001  1.151469649000812E+001  1.165953354181281E+001  1.180619241945490E+001
1.195469603868242E+001  1.210506760348799E+001  1.225733060973457E+001  1.241150884882666E+001
1.256762641142778E+001  1.272570769122472E+001  1.288577738873906E+001  1.304786051518672E+001
1.321198239638596E+001  1.337816867671461E+001  1.354644532311710E+001  1.371683862916178E+001
1.388937521914939E+001  1.406408205227315E+001  1.424098642683118E+001  1.442011598449191E+001
1.460149871461316E+001  1.478516295861556E+001  1.497113741441089E+001  1.515945114088623E+001
1.535013356244449E+001  1.554321447360195E+001  1.573872404364385E+001  1.593669282133824E+001
1.613715173970942E+001  1.634013212087122E+001  1.654566568092115E+001  1.675378453489616E+001
1.696452120179058E+001  1.717790860963737E+001  1.739398010065315E+001  1.761276943644796E+001
1.783431080330068E+001  1.805863881750062E+001  1.828578853075637E+001  1.851579543567278E+001
1.874869547129668E+001  1.898452502873250E+001  1.922332095682837E+001  1.946512056793390E+001
1.970996164373027E+001  1.995788244113368E+001  2.020892169827316E+001  2.046311864054337E+001
2.072051298673370E+001  2.098114495523442E+001  2.124505527032084E+001  2.151228516851668E+001
2.178287640503718E+001  2.205687126031357E+001  2.233431254659944E+001  2.261524361466021E+001
2.289970836054686E+001  2.318775123245466E+001  2.347941723766838E+001  2.377475194959473E+001
2.407380151488329E+001  2.437661266063711E+001  2.468323270171375E+001  2.499370954811846E+001
2.530809171249016E+001  2.562642831768163E+001  2.594876910443514E+001  2.627516443915439E+001
2.660566532177450E+001  2.694032339373078E+001  2.727919094602782E+001  2.762232092741015E+001
2.796976695263543E+001  2.832158331085200E+001  2.867782497408160E+001  2.903854760580885E+001
2.940380756967893E+001  2.977366193830428E+001  3.014816850218248E+001  3.052738577872607E+001
3.091137302140600E+001  3.130019022901023E+001  3.169389815501848E+001  3.209255831709519E+001
3.249623300670176E+001  3.290498529882970E+001  3.331887906185632E+001  3.373797896752414E+001
3.416235050104609E+001  3.459205997133767E+001  3.502717452137784E+001  3.546776213870034E+001
3.591389166601673E+001  3.636563281197332E+001  3.682305616204324E+001  3.728623318955553E+001
3.775523626686316E+001  3.823013867665110E+001  3.871101462338710E+001  3.919793924491617E+001
3.969098862420105E+001  4.019023980121044E+001  4.069577078495645E+001  4.120766056568379E+001
4.172598912721216E+001  4.225083745943380E+001  4.278228757096853E+001  4.332042250197745E+001
4.386532633713838E+001  4.441708421878420E+001  4.497578236020642E+001  4.554150805912640E+001
4.611434971133554E+001  4.669439682450745E+001  4.728174003218368E+001  4.787647110793534E+001
4.847868297970310E+001  4.908846974431707E+001  4.970592668219987E+001  5.033115027225426E+001
5.096423820693816E+001  5.160528940752949E+001  5.225440403958251E+001  5.291168352857914E+001
5.357723057577677E+001  5.425114917425553E+001  5.493354462516764E+001  5.562452355419060E+001
5.632419392818787E+001  5.703266507207889E+001  5.775004768592122E+001  5.847645386220792E+001
5.921199710338185E+001  5.995679233957093E+001  6.071095594654612E+001  6.147460576390529E+001
6.224786111348619E+001  6.303084281801032E+001  6.382367321996202E+001  6.462647620070462E+001
6.543937719983708E+001  6.626250323479454E+001  6.709598292069454E+001  6.793994649043375E+001
6.879452581503696E+001  6.965985442426235E+001  7.053606752746553E+001  7.142330203472667E+001
7.232169657824259E+001  7.323139153398849E+001  7.415252904365201E+001  7.508525303684300E+001
7.602970925358322E+001  7.698604526707796E+001  7.795441050677499E+001  7.893495628171320E+001
7.992783580416476E+001  8.093320421357525E+001  8.195121860080398E+001  8.298203803267013E+001
8.402582357680718E+001  8.508273832682988E+001  8.615294742781840E+001  8.723661810212205E+001
8.833391967548843E+001  8.944502360352088E+001  9.057010349846860E+001  9.170933515635434E+001
9.286289658444235E+001  9.403096802905272E+001  9.521373200372511E+001  9.641137331773685E+001
9.762407910498003E+001  9.885203885320111E+001  1.000954444336090E+002
</PP_R>
<PP_RAB type="real" size="1187" columns="4">