Sg    ONCVPSP-4.0.1  r_core=   1.10583   1.30748   1.20244   1.20244
106.0000     46.0000      230612    zatom,zion,pspd
8      11   3     4   600     0    pspcod,pspxc,lmax,lloc,mmax,r2well
5.99000000  5.00000000  0.00000000    rchrg fchrg qchrg
3     3     2     2    nproj
3     1           extension_switch
4     3     3    nprojso
0                         2.0544833779711E+01 -1.0638674576529E+01 -3.5438155734166E-01
1  0.0000000000000E+00 -2.4883016758181E-08  6.4228689033996E-10  5.4597657228594E-08
2  1.0000000000000E-02  2.1349069590473E-01  5.1320803792075E-02 -5.9381773228360E-02
3  2.0000000000000E-02  4.2477075336971E-01  1.0265241817171E-01 -1.1761997083665E-01
4  3.0000000000000E-02  6.3165718105883E-01  1.5400458952302E-01 -1.7359833343603E-01
5  4.0000000000000E-02  8.3202187960519E-01  2.0538494970372E-01 -2.2625458728154E-01
6  5.0000000000000E-02  1.0238180884803E+00  2.5679799331568E-01 -2.7460583431768E-01
7  6.0000000000000E-02  1.2051056519640E+00  3.0824409594997E-01 -3.1777205859992E-01
8  7.0000000000000E-02  1.3740747403360E+00  3.5971858629603E-01 -3.5499718665181E-01
9  8.0000000000000E-02  1.5290676872920E+00  4.1121088436256E-01 -3.8566719391466E-01
10  9.0000000000000E-02  1.6685986349248E+00  4.6270371727424E-01 -4.0932481583060E-01
11  1.0000000000000E-01  1.7913707129025E+00  5.1417242319671E-01 -4.2568049903625E-01
12  1.1000000000000E-01  1.8962905181390E+00  5.6558435291487E-01 -4.3461931415653E-01
13  1.2000000000000E-01  1.9824797046225E+00  6.1689837746220E-01 -4.3620364507376E-01
14  1.3000000000000E-01  2.0492835394127E+00  6.6806450898525E-01 -4.3067156839040E-01
15  1.4000000000000E-01  2.0962763293471E+00  7.1902364074431E-01 -4.1843093900368E-01
16  1.5000000000000E-01  2.1232636728710E+00  7.6970741081317E-01 -4.0004930099534E-01
17  1.6000000000000E-01  2.1302815417581E+00  8.2003819266189E-01 -3.7623984503585E-01
18  1.7000000000000E-01  2.1175922474279E+00  8.6992921440138E-01 -3.4784373174272E-01
19  1.8000000000000E-01  2.0856773952050E+00  9.1928480704952E-01 -3.1580919244419E-01
20  1.9000000000000E-01  2.0352279763378E+00  9.6800078075769E-01 -2.8116790215038E-01
21  2.0000000000000E-01  1.9671317910514E+00  1.0159649265250E+00 -2.4500919189459E-01
22  2.1000000000000E-01  1.8824584355771E+00  1.0630576395350E+00 -2.0845272684219E-01
23  2.2000000000000E-01  1.7824421212562E+00  1.1091526588859E+00 -1.7262032078790E-01
24  2.3000000000000E-01  1.6684626238367E+00  1.1541179171600E+00 -1.3860758530540E-01
25  2.4000000000000E-01  1.5420246854308E+00  1.1978164919998E+00 -1.0745612171839E-01
26  2.5000000000000E-01  1.4047362098815E+00  1.2401076506345E+00 -8.0126955507942E-02
27  2.6000000000000E-01  1.2582856042059E+00  1.2808479771458E+00 -5.7475885540227E-02
28  2.7000000000000E-01  1.1044186241892E+00  1.3198925711822E+00 -4.0231374911274E-02
29  2.8000000000000E-01  9.4491508110548E-01  1.3570963058386E+00 -2.8975547139668E-02
30  2.9000000000000E-01  7.8156575904898E-01  1.3923151315276E+00 -2.4128772301365E-02
31  3.0000000000000E-01  6.1614987877118E-01  1.4254074118921E+00 -2.5938234473595E-02
32  3.1000000000000E-01  4.5041342461965E-01  1.4562352771599E+00 -3.4470766969817E-02
33  3.2000000000000E-01  2.8604862671188E-01  1.4846659798352E+00 -4.9610128208303E-02
34  3.3000000000000E-01  1.2467486147784E-01  1.5105732372738E+00 -7.1058771884721E-02
35  3.4000000000000E-01 -3.2178799090239E-02  1.5338385455167E+00 -9.8344043941402E-02
36  3.5000000000000E-01 -1.8308919493362E-01  1.5543524487662E+00 -1.3082861926676E-01
37  3.6000000000000E-01 -3.2675268555052E-01  1.5720157491009E+00 -1.6772487681069E-01
38  3.7000000000000E-01 -4.6199664031413E-01  1.5867406414479E+00 -2.0811280645818E-01
39  3.8000000000000E-01 -5.8778873361015E-01  1.5984517594628E+00 -2.5096094788769E-01
40  3.9000000000000E-01 -7.0324400598300E-01  1.6070871188279E+00 -2.9514978380219E-01
41  4.0000000000000E-01 -8.0762969023870E-01  1.6125989455475E+00 -3.3949694985684E-01
42  4.1000000000000E-01 -9.0036783715308E-01  1.6149543781084E+00 -3.8278358331509E-01
43  4.2000000000000E-01 -9.8103580841695E-01  1.6141360338543E+00 -4.2378111325238E-01
44  4.3000000000000E-01 -1.0493647341595E+00  1.6101424315974E+00 -4.6127779758175E-01
45  4.4000000000000E-01 -1.1052360583850E+00  1.6029882643135E+00 -4.9410433616788E-01
46  4.5000000000000E-01 -1.1486763176250E+00  1.5927045177375E+00 -5.2115793388335E-01
47  4.6000000000000E-01 -1.1798503158613E+00  1.5793384327330E+00 -5.4142425101452E-01
48  4.7000000000000E-01 -1.1990528722622E+00  1.5629533114426E+00 -5.5399675857585E-01
49  4.8000000000000E-01 -1.2066993275659E+00  1.5436281693709E+00 -5.5809310988907E-01
50  4.9000000000000E-01 -1.2033150002231E+00  1.5214572376851E+00 -5.5306824376244E-01
51  5.0000000000000E-01 -1.1895237849670E+00  1.4965493220812E+00 -5.3842404490138E-01
52  5.1000000000000E-01 -1.1660360846863E+00  1.4690270265216E+00 -5.1381549970773E-01
53  5.2000000000000E-01 -1.1336362617698E+00  1.4390258519542E+00 -4.7905339621137E-01
54  5.3000000000000E-01 -1.0931697879631E+00  1.4066931817378E+00 -4.3410372141801E-01
55  5.4000000000000E-01 -1.0455302627263E+00  1.3721871668839E+00 -3.7908400401567E-01
56  5.5000000000000E-01 -9.9164645962250E-01  1.3356755253571E+00 -3.1425693169646E-01
57  5.6000000000000E-01 -9.3246954888241E-01  1.2973342705231E+00 -2.4002163742648E-01
58  5.7000000000000E-01 -8.6896063242573E-01  1.2573463843909E+00 -1.5690309558788E-01
59  5.8000000000000E-01 -8.0207871566723E-01  1.2159004515424E+00 -6.5540095558930E-02
60  5.9000000000000E-01 -7.3276922870639E-01  1.1731892695922E+00  3.3327733648742E-02
61  6.0000000000000E-01 -6.6195319822943E-01  1.1294084516811E+00  1.3887338837464E-01
62  6.1000000000000E-01 -5.9051716078862E-01  1.0847550358854E+00  2.5019601913823E-01
63  6.2000000000000E-01 -5.1930389812140E-01  1.0394261155685E+00  3.6633414837752E-01
64  6.3000000000000E-01 -4.4910406580466E-01  9.9361750362863E-01  4.8627826761376E-01
65  6.4000000000000E-01 -3.8064877770003E-01  9.4752244235325E-01  6.0898258123515E-01
66  6.5000000000000E-01 -3.1460320016338E-01  9.0133036922510E-01  7.3337574814414E-01
67  6.6000000000000E-01 -2.5156120164352E-01  8.5522574758068E-01  8.5837055967048E-01
68  6.7000000000000E-01 -1.9204109482594E-01  8.0938696954892E-01  9.8287257803012E-01
69  6.8000000000000E-01 -1.3648249962150E-01  7.6398533724708E-01  1.1057878397762E+00
70  6.9000000000000E-01 -8.5244345799126E-02  7.1918412682640E-01  1.2260297989853E+00
71  7.0000000000000E-01 -3.8604023688396E-02  6.7513773868387E-01  1.3425257415381E+00
72  7.1000000000000E-01  3.2423200458632E-03  6.3199093602426E-01  1.4542229416025E+00
73  7.2000000000000E-01  4.0178357135879E-02  5.8987817299640E-01  1.5600948518502E+00
74  7.3000000000000E-01  7.2165052296053E-02  5.4892301285798E-01  1.6591476184589E+00
75  7.4000000000000E-01  9.9237081887034E-02  5.0923763605383E-01  1.7504271899621E+00
76  7.5000000000000E-01  1.2149825671067E-01  4.7092243772269E-01  1.8330272459550E+00
77  7.6000000000000E-01  1.3911602548416E-01  4.3406571396581E-01  1.9060981090172E+00
78  7.7000000000000E-01  1.5231515233398E-01  3.9874343619630E-01  1.9688567235007E+00
79  7.8000000000000E-01  1.6137067827740E-01  3.6501911301097E-01  2.0205976914905E+00
80  7.9000000000000E-01  1.6660029257805E-01  3.3294373924857E-01  2.0607052535978E+00
81  8.0000000000000E-01  1.6835625447631E-01  3.0255583217543E-01  2.0886659952240E+00
82  8.1000000000000E-01  1.6701701846996E-01  2.7388155502226E-01  2.1040819530404E+00
83  8.2000000000000E-01  1.6297872641839E-01  2.4693492833434E-01  2.1066836973220E+00
84  8.3000000000000E-01  1.5664673663910E-01  2.2171812973894E-01  2.0963428792593E+00
85  8.4000000000000E-01  1.4842736329140E-01  1.9822188273093E-01  2.0730836639243E+00
86  8.5000000000000E-01  1.3871999820432E-01  1.7642593488564E-01  2.0370924242662E+00
87  8.6000000000000E-01  1.2790978151955E-01  1.5629962549040E-01  1.9887250536856E+00
88  8.7000000000000E-01  1.1636097683277E-01  1.3780254191464E-01  1.9285112677993E+00
89  8.8000000000000E-01  1.0441119082716E-01  1.2088526309661E-01  1.8571553122631E+00
90  8.9000000000000E-01  9.2366556769078E-02  1.0549018730642E-01  1.7755325740000E+00
91  9.0000000000000E-01  8.0497975926639E-02  9.1552439860430E-02  1.6846817075493E+00
92  9.1000000000000E-01  6.9038481401047E-02  7.9000854730218E-02  1.5857920347900E+00
93  9.2000000000000E-01  5.8181755639567E-02  6.7759022047640E-02  1.4801861518158E+00
94  9.3000000000000E-01  4.8081796791222E-02  5.7746391401403E-02  1.3692978768050E+00
95  9.4000000000000E-01  3.8853690995650E-02  4.8879418610168E-02  1.2546458915862E+00
96  9.5000000000000E-01  3.0575408692371E-02  4.1072741409691E-02  1.1378036605577E+00
97  9.6000000000000E-01  2.3290504241207E-02  3.4240367283272E-02  1.0203664460287E+00
98  9.7000000000000E-01  1.7011560715688E-02  2.8296854574736E-02  9.0391647090675E-01
99  9.8000000000000E-01  1.1724186878291E-02  2.3158466133653E-02  7.8998749949270E-01
100  9.9000000000000E-01  7.3913422199260E-03  1.8744273133609E-02  6.8003030669518E-01
101  1.0000000000000E+00  3.9577396409895E-03  1.4977185451293E-02  5.7538067726879E-01
102  1.0100000000000E+00  1.3540548213955E-03  1.1784884164203E-02  4.7723171258277E-01
103  1.0200000000000E+00 -4.9934259023030E-04  9.1006313757636E-03  3.8661231658582E-01
104  1.0300000000000E+00 -1.6894253203227E-03  6.8639338444803E-03  3.0437376791490E-01
105  1.0400000000000E+00 -2.3086428141901E-03  5.0210193718277E-03  2.3118651084027E-01
106  1.0500000000000E+00 -2.4543759318687E-03  3.5251532903526E-03  1.6754865582906E-01
107  1.0600000000000E+00 -2.2433482907326E-03  2.3287367126035E-03  1.1388459604690E-01
108  1.0700000000000E+00 -1.7779742868144E-03  1.3968854530203E-03  7.0386428611645E-02
109  1.0800000000000E+00 -1.1604773529641E-03  7.1317468685013E-04  3.7098482988645E-02
110  1.0900000000000E+00 -5.3510687109331E-04  2.6346487722069E-04  1.4188046802566E-02
111  1.1000000000000E+00 -8.8894683491473E-05  3.5696440556230E-05  1.9969163464114E-03
112  1.1100000000000E+00  4.7930201981142E-06 -1.6763652834594E-06 -9.6951402782312E-05
113  1.1200000000000E+00  1.3032409563972E-07 -5.2910710784089E-08 -2.9627007632508E-06
114  1.13  0.  0.  0.
115  1.14  0.  0.  0.
116  1.15  0.  0.  0.
117  1.16  0.  0.  0.
118  1.17  0.  0.  0.
119  1.18  0.  0.  0.
120  1.19  0.  0.  0.
121  1.20  0.  0.  0.
122  1.21  0.  0.  0.
123  1.22  0.  0.  0.
124  1.23  0.  0.  0.
125  1.24  0.  0.  0.
126  1.25  0.  0.  0.
127  1.26  0.  0.  0.
128  1.27  0.  0.  0.
129  1.28  0.  0.  0.
130  1.29  0.  0.  0.
131  1.30  0.  0.  0.
132  1.31  0.  0.  0.
133  1.32  0.  0.  0.
134  1.33  0.  0.  0.
135  1.34  0.  0.  0.
136  1.35  0.  0.  0.
137  1.36  0.  0.  0.
138  1.37  0.  0.  0.
139  1.38  0.  0.  0.
140  1.39  0.  0.  0.
141  1.40  0.  0.  0.
142  1.41  0.  0.  0.
143  1.42  0.  0.  0.
144  1.43  0.  0.  0.
145  1.44  0.  0.  0.
146  1.45  0.  0.  0.
147  1.46  0.  0.  0.
148  1.47  0.  0.  0.
149  1.48  0.  0.  0.
150  1.49  0.  0.  0.
151  1.50  0.  0.  0.
152  1.51  0.  0.  0.
153  1.52  0.  0.  0.
154  1.53  0.  0.  0.
155  1.54  0.  0.  0.
156  1.55  0.  0.  0.
157  1.56  0.  0.  0.
158  1.57  0.  0.  0.
159  1.58  0.  0.  0.
160  1.59  0.  0.  0.
161  1.60  0.  0.  0.
162  1.61  0.  0.  0.
163  1.62  0.  0.  0.
164  1.63  0.  0.  0.
165  1.64  0.  0.  0.
166  1.65  0.  0.  0.
167  1.66  0.  0.  0.
168  1.67  0.  0.  0.
169  1.68  0.  0.  0.
170  1.69  0.  0.  0.
171  1.70  0.  0.  0.
172  1.71  0.  0.  0.
173  1.72  0.  0.  0.
174  1.73  0.  0.  0.
175  1.74  0.  0.  0.
176  1.75  0.  0.  0.
177  1.76  0.  0.  0.
178  1.77  0.  0.  0.
179  1.78  0.  0.  0.
180  1.79  0.  0.  0.
181  1.80  0.  0.  0.
182  1.81  0.  0.  0.
183  1.82  0.  0.  0.
184  1.83  0.  0.  0.
185  1.84  0.  0.  0.
186  1.85  0.  0.  0.
187  1.86  0.  0.  0.
188  1.87  0.  0.  0.
189  1.88  0.  0.  0.
190  1.89  0.  0.  0.
191  1.90  0.  0.  0.
192  1.91  0.  0.  0.
193  1.92  0.  0.  0.
194  1.93  0.  0.  0.
195  1.94  0.  0.  0.
196  1.95  0.  0.  0.
197  1.96  0.  0.  0.
198  1.97  0.  0.  0.
199  1.98  0.  0.  0.
200  1.99  0.  0.  0.
201  2.00  0.  0.  0.
202  2.01  0.  0.  0.
203  2.02  0.  0.  0.
204  2.03  0.  0.  0.
205  2.04  0.  0.  0.
206  2.05  0.  0.  0.
207  2.06  0.  0.  0.
208  2.07  0.  0.  0.
209  2.08  0.  0.  0.
210  2.09  0.  0.  0.
211  2.10  0.  0.  0.
212  2.11  0.  0.  0.
213  2.12  0.  0.  0.
214  2.13  0.  0.  0.
215  2.14  0.  0.  0.
216  2.15  0.  0.  0.
217  2.16  0.  0.  0.
218  2.17  0.  0.  0.
219  2.18  0.  0.  0.
220  2.19  0.  0.  0.
221  2.20  0.  0.  0.
222  2.21  0.  0.  0.
223  2.22  0.  0.  0.
224  2.23  0.  0.  0.
225  2.24  0.  0.  0.
226  2.25  0.  0.  0.
227  2.26  0.  0.  0.
228  2.27  0.  0.  0.
229  2.28  0.  0.  0.
230  2.29  0.  0.  0.
231  2.30  0.  0.  0.
232  2.31  0.  0.  0.
233  2.32  0.  0.  0.
234  2.33  0.  0.  0.
235  2.34  0.  0.  0.
236  2.35  0.  0.  0.
237  2.36  0.  0.  0.
238  2.37  0.  0.  0.
239  2.38  0.  0.  0.
240  2.39  0.  0.  0.
241  2.40  0.  0.  0.
242  2.41  0.  0.  0.
243  2.42  0.  0.  0.
244  2.43  0.  0.  0.
245  2.44  0.  0.  0.
246  2.45  0.  0.  0.
247  2.46  0.  0.  0.
248  2.47  0.  0.  0.
249  2.48  0.  0.  0.
250  2.49  0.  0.  0.
251  2.50  0.  0.  0.
252  2.51  0.  0.  0.
253  2.52  0.  0.  0.
254  2.53  0.  0.  0.
255  2.54  0.  0.  0.
256  2.55  0.  0.  0.
257  2.56  0.  0.  0.
258  2.57  0.  0.  0.
259  2.58  0.  0.  0.
260  2.59  0.  0.  0.
261  2.60  0.  0.  0.
262  2.61  0.  0.  0.
263  2.62  0.  0.  0.
264  2.63  0.  0.  0.
265  2.64  0.  0.  0.
266  2.65  0.  0.  0.
267  2.66  0.  0.  0.
268  2.67  0.  0.  0.
269  2.68  0.  0.  0.
270  2.69  0.  0.  0.
271  2.70  0.  0.  0.
272  2.71  0.  0.  0.
273  2.72  0.  0.  0.
274  2.73  0.  0.  0.
275  2.74  0.  0.  0.
276  2.75  0.  0.  0.
277  2.76  0.  0.  0.
278  2.77  0.  0.  0.
279  2.78  0.  0.  0.
280  2.79  0.  0.  0.
281  2.80  0.  0.  0.
282  2.81  0.  0.  0.
283  2.82  0.  0.  0.
284  2.83  0.  0.  0.
285  2.84  0.  0.  0.
286  2.85  0.  0.  0.
287  2.86  0.  0.  0.
288  2.87  0.  0.  0.
289  2.88  0.  0.  0.
290  2.89  0.  0.  0.
291  2.90  0.  0.  0.
292  2.91  0.  0.  0.
293  2.92  0.  0.  0.
294  2.93  0.  0.  0.
295  2.94  0.  0.  0.
296  2.95  0.  0.  0.
297  2.96  0.  0.  0.
298  2.97  0.  0.  0.
299  2.98  0.  0.  0.
300  2.99  0.  0.  0.
301  3.00  0.  0.  0.
302  3.01  0.  0.  0.
303  3.02  0.  0.  0.
304  3.03  0.  0.  0.
305  3.04  0.  0.  0.
306  3.05  0.  0.  0.
307  3.06  0.  0.  0.
308  3.07  0.  0.  0.
309  3.08  0.  0.  0.
310  3.09  0.  0.  0.
311  3.10  0.  0.  0.
312  3.11  0.  0.  0.
313  3.12  0.  0.  0.
314  3.13  0.  0.  0.
315  3.14  0.  0.  0.
316  3.15  0.  0.  0.
317  3.16  0.  0.  0.
318  3.17  0.  0.  0.
319  3.18  0.  0.  0.
320  3.19  0.  0.  0.
321  3.20  0.  0.  0.
322  3.21  0.  0.  0.
323  3.22  0.  0.  0.
324  3.23  0.  0.  0.
325  3.24  0.  0.  0.
326  3.25  0.  0.  0.
327  3.26  0.  0.  0.
328  3.27  0.  0.  0.
329  3.28  0.  0.  0.
330  3.29  0.  0.  0.
331  3.30  0.  0.  0.
332  3.31  0.  0.  0.
333  3.32  0.  0.  0.
334  3.33  0.  0.  0.
335  3.34  0.  0.  0.
336  3.35  0.  0.  0.
337  3.36  0.  0.  0.
338  3.37  0.  0.  0.
339  3.38  0.  0.  0.
340  3.39  0.  0.  0.
341  3.40  0.  0.  0.
342  3.41  0.  0.  0.
343  3.42  0.  0.  0.
344  3.43  0.  0.  0.
345  3.44  0.  0.  0.
346  3.45  0.  0.  0.
347  3.46  0.  0.  0.
348  3.47  0.  0.  0.
349  3.48  0.  0.  0.
350  3.49  0.  0.  0.
351  3.50  0.  0.  0.
352  3.51  0.  0.  0.
353  3.52  0.  0.  0.
354  3.53  0.  0.  0.
355  3.54  0.  0.  0.
356  3.55  0.  0.  0.
357  3.56  0.  0.  0.
358  3.57  0.  0.  0.
359  3.58  0.  0.  0.
360  3.59  0.  0.  0.
361  3.60  0.  0.  0.
362  3.61  0.  0.  0.
363  3.62  0.  0.  0.
364  3.63  0.  0.  0.
365  3.64  0.  0.  0.
366  3.65  0.  0.  0.
367  3.66  0.  0.  0.
368  3.67  0.  0.  0.
369  3.68  0.  0.  0.
370  3.69  0.  0.  0.
371  3.70  0.  0.  0.
372  3.71  0.  0.  0.
373  3.72  0.  0.  0.
374  3.73  0.  0.  0.
375  3.74  0.  0.  0.
376  3.75  0.  0.  0.
377  3.76  0.  0.  0.
378  3.77  0.  0.  0.
379  3.78  0.  0.  0.
380  3.79  0.  0.  0.
381  3.80  0.  0.  0.
382  3.81  0.  0.  0.
383  3.82  0.  0.  0.
384  3.83  0.  0.  0.
385  3.84  0.  0.  0.
386  3.85  0.  0.  0.
387  3.86  0.  0.  0.
388  3.87  0.  0.  0.
389  3.88  0.  0.  0.
390  3.89  0.  0.  0.
391  3.90  0.  0.  0.
392  3.91  0.  0.  0.
393  3.92  0.  0.  0.
394  3.93  0.  0.  0.
395  3.94  0.  0.  0.
396  3.95  0.  0.  0.
397  3.96  0.  0.  0.
398  3.97  0.  0.  0.
399  3.98  0.  0.  0.
400  3.99  0.  0.  0.
401  4.00  0.  0.  0.
402  4.01  0.  0.  0.
403  4.02  0.  0.  0.
404  4.03  0.  0.  0.
405  4.04  0.  0.  0.
406  4.05  0.  0.  0.
407  4.06  0.  0.  0.
408  4.07  0.  0.  0.
409  4.08  0.  0.  0.
410  4.09  0.  0.  0.
411  4.10  0.  0.  0.
412  4.11  0.  0.  0.
413  4.12  0.  0.  0.
414  4.13  0.  0.  0.
415  4.14  0.  0.  0.
416  4.15  0.  0.  0.
417  4.16  0.  0.  0.
418  4.17  0.  0.  0.
419  4.18  0.  0.  0.
420  4.19  0.  0.  0.
421  4.20  0.  0.  0.
422  4.21  0.  0.  0.
423  4.22  0.  0.  0.
424  4.23  0.  0.  0.
425  4.24  0.  0.  0.
426  4.25  0.  0.  0.
427  4.26  0.  0.  0.
428  4.27  0.  0.  0.
429  4.28  0.  0.  0.
430  4.29  0.  0.  0.
431  4.30  0.  0.  0.
432  4.31  0.  0.  0.
433  4.32  0.  0.  0.
434  4.33  0.  0.  0.
435  4.34  0.  0.  0.
436  4.35  0.  0.  0.
437  4.36  0.  0.  0.
438  4.37  0.  0.  0.
439  4.38  0.  0.  0.
440  4.39  0.  0.  0.
441  4.40  0.  0.  0.
442  4.41  0.  0.  0.
443  4.42  0.  0.  0.
444  4.43  0.  0.  0.
445  4.44  0.  0.  0.
446  4.45  0.  0.  0.
447  4.46  0.  0.  0.
448  4.47  0.  0.  0.
449  4.48  0.  0.  0.
450  4.49  0.  0.  0.
451  4.50  0.  0.  0.
452  4.51  0.  0.  0.
453  4.52  0.  0.  0.
454  4.53  0.  0.  0.
455  4.54  0.  0.  0.
456  4.55  0.  0.  0.
457  4.56  0.  0.  0.
458  4.57  0.  0.  0.
459  4.58  0.  0.  0.
460  4.59  0.  0.  0.
461  4.60  0.  0.  0.
462  4.61  0.  0.  0.
463  4.62  0.  0.  0.
464  4.63  0.  0.  0.
465  4.64  0.  0.  0.
466  4.65  0.  0.  0.
467  4.66  0.  0.  0.
468  4.67  0.  0.  0.
469  4.68  0.  0.  0.
470  4.69  0.  0.  0.
471  4.70  0.  0.  0.
472  4.71  0.  0.  0.
473  4.72  0.  0.  0.
474  4.73  0.  0.  0.
475  4.74  0.  0.  0.
476  4.75  0.  0.  0.
477  4.76  0.  0.  0.
478  4.77  0.  0.  0.
479  4.78  0.  0.  0.
480  4.79  0.  0.  0.
481  4.80  0.  0.  0.
482  4.81  0.  0.  0.
483  4.82  0.  0.  0.
484  4.83  0.  0.  0.
485  4.84  0.  0.  0.
486  4.85  0.  0.  0.
487  4.86  0.  0.  0.
488  4.87  0.  0.  0.
489  4.88  0.  0.  0.
490  4.89  0.  0.  0.
491  4.90  0.  0.  0.
492  4.91  0.  0.  0.
493  4.92  0.  0.  0.
494  4.93  0.  0.  0.
495  4.94  0.  0.  0.
496  4.95  0.  0.  0.
497  4.96  0.  0.  0.
498  4.97  0.  0.  0.
499  4.98  0.  0.  0.
500  4.99  0.  0.  0.
501  5.00  0.  0.  0.
502  5.01  0.  0.  0.
503  5.02  0.  0.  0.
504  5.03  0.  0.  0.
505  5.04  0.  0.  0.
506  5.05  0.  0.  0.
507  5.06  0.  0.  0.
508  5.07  0.  0.  0.
509  5.08  0.  0.  0.
510  5.09  0.  0.  0.
511  5.10  0.  0.  0.
512  5.11  0.  0.  0.
513  5.12  0.  0.  0.
514  5.13  0.  0.  0.
515  5.14  0.  0.  0.
516  5.15  0.  0.  0.
517  5.16  0.  0.  0.
518  5.17  0.  0.  0.
519  5.18  0.  0.  0.
520  5.19  0.  0.  0.
521  5.20  0.  0.  0.
522  5.21  0.  0.  0.
523  5.22  0.  0.  0.
524  5.23  0.  0.  0.
525  5.24  0.  0.  0.
526  5.25  0.  0.  0.
527  5.26  0.  0.  0.
528  5.27  0.  0.  0.
529  5.28  0.  0.  0.
530  5.29  0.  0.  0.
531  5.30  0.  0.  0.
532  5.31  0.  0.  0.
533  5.32  0.  0.  0.
534  5.33  0.  0.  0.
535  5.34  0.  0.  0.
536  5.35  0.  0.  0.
537  5.36  0.  0.  0.
538  5.37  0.  0.  0.
539  5.38  0.  0.  0.
540  5.39  0.  0.  0.
541  5.40  0.  0.  0.
542  5.41  0.  0.  0.
543  5.42  0.  0.  0.
544  5.43  0.  0.  0.
545  5.44  0.  0.  0.
546  5.45  0.  0.  0.
547  5.46  0.  0.  0.
548  5.47  0.  0.  0.
549  5.48  0.  0.  0.
550  5.49  0.  0.  0.
551  5.50  0.  0.  0.
552  5.51  0.  0.  0.
553  5.52  0.  0.  0.
554  5.53  0.  0.  0.
555  5.54  0.  0.  0.
556  5.55  0.  0.  0.
557  5.56  0.  0.  0.
558  5.57  0.  0.  0.
559  5.58  0.  0.  0.
560  5.59  0.  0.  0.
561  5.60  0.  0.  0.
562  5.61  0.  0.  0.
563  5.62  0.  0.  0.
564  5.63  0.  0.  0.
565  5.64  0.  0.  0.
566  5.65  0.  0.  0.
567  5.66  0.  0.  0.
568  5.67  0.  0.  0.
569  5.68  0.  0.  0.
570  5.69  0.  0.  0.
571  5.70  0.  0.  0.
572  5.71  0.  0.  0.
573  5.72  0.  0.  0.
574  5.73  0.  0.  0.
575  5.74  0.  0.  0.
576  5.75  0.  0.  0.
577  5.76  0.  0.  0.
578  5.77  0.  0.  0.
579  5.78  0.  0.  0.
580  5.79  0.  0.  0.
581  5.80  0.  0.  0.
582  5.81  0.  0.  0.
583  5.82  0.  0.  0.
584  5.83  0.  0.  0.
585  5.84  0.  0.  0.
586  5.85  0.  0.  0.
587  5.86  0.  0.  0.
588  5.87  0.  0.  0.
589  5.88  0.  0.  0.
590  5.89  0.  0.  0.
591  5.90  0.  0.  0.
592  5.91  0.  0.  0.
593  5.92  0.  0.  0.
594  5.93  0.  0.  0.
595  5.94  0.  0.  0.
596  5.95  0.  0.  0.
597  5.96  0.  0.  0.
598  5.97  0.  0.  0.
599  5.98  0.  0.  0.
600  5.99  0.  0.  0.
1                        -9.9030969744540E+00  5.3508311176415E-01 -2.8590608098098E-01
1  0.0000000000000E+00  2.3385301750611E-09  1.0545506384796E-08 -1.7283571074334E-08
2  1.0000000000000E-02  2.5608712824076E-03  2.5997335433455E-03 -4.2151744170102E-03
3  2.0000000000000E-02  1.0226619123784E-02  1.0369433329269E-02 -1.6801491613644E-02
4  3.0000000000000E-02  2.2946779591094E-02  2.3220964233938E-02 -3.7582097955874E-02
5  4.0000000000000E-02  4.0637691799639E-02  4.1008652626344E-02 -6.6264776411100E-02
6  5.0000000000000E-02  6.3183161959416E-02  6.3531091305213E-02 -1.0244572225115E-01
7  6.0000000000000E-02  9.0435384171093E-02  9.0533622101077E-02 -1.4561476371754E-01
8  7.0000000000000E-02  1.2221610921755E-01  1.2171145309045E-01 -1.9516196313536E-01
9  8.0000000000000E-02  1.5831805025841E-01  1.5671335682358E-01 -2.5038551667837E-01
10  9.0000000000000E-02  1.9850651211592E-01  1.9514588666978E-01 -3.1050085456526E-01
11  1.0000000000000E-01  2.4252122876508E-01  2.3657804054569E-01 -3.7465082808544E-01
12  1.1000000000000E-01  2.9007839173059E-01  2.8054629507464E-01 -4.4191685569991E-01
13  1.2000000000000E-01  3.4087285036930E-01  3.2655992875107E-01 -5.1133088771585E-01
14  1.3000000000000E-01  3.9458046349694E-01  3.7410655003663E-01 -5.8188803785470E-01
15  1.4000000000000E-01  4.5086058051849E-01  4.2265774550508E-01 -6.5255972059922E-01
16  1.5000000000000E-01  5.0935862915525E-01  4.7167476418241E-01 -7.2230712564105E-01
17  1.6000000000000E-01  5.6970878604110E-01  5.2061415699862E-01 -7.9009485521868E-01
18  1.7000000000000E-01  6.3153670589070E-01  5.6893329469079E-01 -8.5490454672614E-01
19  1.8000000000000E-01  6.9446228463177E-01  6.1609569339558E-01 -9.1574830180168E-01
20  1.9000000000000E-01  7.5810243184124E-01  6.6157608436028E-01 -9.7168174423508E-01
21  2.0000000000000E-01  8.2207382803217E-01  7.0486517245848E-01 -1.0218165325104E+00
22  2.1000000000000E-01  8.8599564279880E-01  7.4547403727085E-01 -1.0653321586440E+00
23  2.2000000000000E-01  9.4949219053599E-01  7.8293814011948E-01 -1.1014868731680E+00
24  2.3000000000000E-01  1.0121955013943E+00  8.1682091035446E-01 -1.1296275866000E+00
25  2.4000000000000E-01  1.0737477863014E+00  8.4671689411016E-01 -1.1491986104322E+00
26  2.5000000000000E-01  1.1338037762594E+00  8.7225445840992E-01 -1.1597491154625E+00
27  2.6000000000000E-01  1.1920329176951E+00  8.9309805265530E-01 -1.1609392019907E+00
28  2.7000000000000E-01  1.2481214073797E+00  9.0895003795668E-01 -1.1525444948349E+00
29  2.8000000000000E-01  1.3017740523190E+00  9.1955210225292E-01 -1.1344591960455E+00
30  2.9000000000000E-01  1.3527159420276E+00  9.2468628555914E-01 -1.1066975493313E+00
31  3.0000000000000E-01  1.4006939227036E+00  9.2417564484953E-01 -1.0693936922818E+00
32  3.1000000000000E-01  1.4454778650025E+00  9.1788459194223E-01 -1.0227998951340E+00
33  3.2000000000000E-01  1.4868617193302E+00  9.0571894025873E-01 -9.6728320775591E-01
34  3.3000000000000E-01  1.5246643548148E+00  8.8762569748859E-01 -9.0332055933360E-01
35  3.4000000000000E-01  1.5587301803448E+00  8.6359264103846E-01 -8.3149237760025E-01
36  3.5000000000000E-01  1.5889295482537E+00  8.3364771177029E-01 -7.5247481594499E-01
37  3.6000000000000E-01  1.6151589433575E+00  7.9785825905283E-01 -6.6703069704175E-01
38  3.7000000000000E-01  1.6373409620917E+00  7.5633016671813E-01 -5.7599930037823E-01
39  3.8000000000000E-01  1.6554240884226E+00  7.0920688530283E-01 -4.8028513792291E-01
40  3.9000000000000E-01  1.6693822750048E+00  6.5666839116314E-01 -3.8084587683586E-01
41  4.0000000000000E-01  1.6792143396995E+00  5.9893008788616E-01 -2.7867958034929E-01
42  4.1000000000000E-01  1.6849431890521E+00  5.3624166009976E-01 -1.7481144748300E-01
43  4.2000000000000E-01  1.6866148816188E+00  4.6888588450914E-01 -7.0280238956149E-02
44  4.3000000000000E-01  1.6842975451452E+00  3.9717739797287E-01  3.3875419623532E-02
45  4.4000000000000E-01  1.6780801625048E+00  3.2146141785318E-01  1.3663066552740E-01
46  4.5000000000000E-01  1.6680712420134E+00  2.4211240589805E-01  2.3698776822176E-01
47  4.6000000000000E-01  1.6543973882371E+00  1.5953266367538E-01  3.3398905617401E-01
48  4.7000000000000E-01  1.6372017897122E+00  7.4150845176716E-02  4.2672922531113E-01
49  4.8000000000000E-01  1.6166426400983E+00 -1.3579629282936E-02  5.1436686422410E-01
50  4.9000000000000E-01  1.5928915092003E+00 -1.0318227430091E-01  5.9613504461554E-01
51  5.0000000000000E-01  1.5661316800274E+00 -1.9415937181733E-01  6.7135084109664E-01
52  5.1000000000000E-01  1.5365564676282E+00 -2.8599394954186E-01  7.3942366192959E-01
53  5.2000000000000E-01  1.5043675348519E+00 -3.7815191811331E-01  7.9986229132946E-01
54  5.3000000000000E-01  1.4697732194669E+00 -4.7008437696991E-01  8.5228056409542E-01
55  5.4000000000000E-01  1.4329868862290E+00 -5.6123009558381E-01  8.9640161424033E-01
56  5.5000000000000E-01  1.3942253165491E+00 -6.5101817298889E-01  9.3206066050837E-01
57  5.6000000000000E-01  1.3537071473910E+00 -7.3887087456793E-01  9.5920631280903E-01
58  5.7000000000000E-01  1.3116513699451E+00 -8.2420664104824E-01  9.7790040424715E-01
59  5.8000000000000E-01  1.2682758974988E+00 -9.0644326075522E-01  9.8831637321705E-01
60  5.9000000000000E-01  1.2237962107702E+00 -9.8500119256129E-01  9.9073623860599E-01
61  6.0000000000000E-01  1.1784240878153E+00 -1.0593070238000E+00  9.8554622820795E-01
62  6.1000000000000E-01  1.1323664244646E+00 -1.1287970448117E+00  9.7323113573046E-01
63  6.2000000000000E-01  1.0858241501185E+00 -1.1929209198655E+00  9.5436749506850E-01
64  6.3000000000000E-01  1.0389912426386E+00 -1.2511454330140E+00  9.2961567168521E-01
65  6.4000000000000E-01  9.9205384502242E-01 -1.3029582870249E+00  8.9971097988802E-01
66  6.5000000000000E-01  9.4518948556118E-01 -1.3478719338804E+00  8.6545394150929E-01
67  6.6000000000000E-01  8.9856640224683E-01 -1.3854274163869E+00  8.2769980603117E-01
68  6.7000000000000E-01  8.5234297133323E-01 -1.4151982021075E+00  7.8734745465447E-01
69  6.8000000000000E-01  8.0666723915883E-01 -1.4367939929703E+00  7.4532781135958E-01
70  6.9000000000000E-01  7.6167655561248E-01 -1.4498644963595E+00  7.0259188287020E-01
71  7.0000000000000E-01  7.1749730696429E-01 -1.4541031460546E+00  6.6009854687644E-01
72  7.1000000000000E-01  6.7424474518862E-01 -1.4492507638120E+00  6.1880220420339E-01
73  7.2000000000000E-01  6.3202291037157E-01 -1.4350991544551E+00  5.7964040616146E-01
74  7.3000000000000E-01  5.9092464231476E-01 -1.4114946287811E+00  5.4352156343288E-01
75  7.4000000000000E-01  5.5103167701560E-01 -1.3783414491641E+00  5.1131283788948E-01
76  7.5000000000000E-01  5.1241482331357E-01 -1.3356051921930E+00  4.8382831404628E-01
77  7.6000000000000E-01  4.7513421463668E-01 -1.2833160207943E+00  4.6181754276718E-01
78  7.7000000000000E-01  4.3923963045435E-01 -1.2215718548850E+00  4.4595454664420E-01
79  7.8000000000000E-01  4.0477088173729E-01 -1.1505414245051E+00  4.3682737443576E-01
80  7.9000000000000E-01  3.7175825443500E-01 -1.0704671825080E+00  4.3492829127276E-01
81  8.0000000000000E-01  3.4022300470378E-01 -9.8166804518558E-01  4.4064469217534E-01
82  8.1000000000000E-01  3.1017789934834E-01 -8.8454191869095E-01  4.5425082884533E-01
83  8.2000000000000E-01  2.8162779467749E-01 -7.7956795687610E-01  4.7590044372428E-01
84  8.3000000000000E-01  2.5457024671706E-01 -6.6730848234211E-01  5.0562041086436E-01
85  8.4000000000000E-01  2.2899614547398E-01 -5.4841048731799E-01  5.4330549011506E-01
86  8.5000000000000E-01  2.0489036570594E-01 -4.2360661473718E-01  5.8871430926804E-01
87  8.6000000000000E-01  1.8223242642557E-01 -2.9371550291756E-01  6.4146669784310E-01
88  8.7000000000000E-01  1.6099715116325E-01 -1.5964135998646E-01  7.0104250579290E-01
89  8.8000000000000E-01  1.4115532083430E-01 -2.2372617080410E-02  7.6678205015975E-01
90  8.9000000000000E-01  1.2267431091300E-01  1.1702050709493E-01  8.3788834217174E-01
91  9.0000000000000E-01  1.0551870451666E-01  2.5738971302590E-01  9.1343125596223E-01
92  9.1000000000000E-01  8.9650872956549E-02  3.9751379466974E-01  9.9235380750364E-01
93  9.2000000000000E-01  7.5031515328711E-02  5.3610548870031E-01  1.0734807179939E+00
94  9.3000000000000E-01  6.1620148806428E-02  6.7182021459479E-01  1.1555294392937E+00
95  9.4000000000000E-01  4.9375541464932E-02  8.0326692654385E-01  1.2371238196217E+00
96  9.5000000000000E-01  3.8256079727450E-02  9.2902129950817E-01  1.3168105851558E+00
97  9.6000000000000E-01  2.8220062875487E-02  1.0476414688913E+00  1.3930788070430E+00
98  9.7000000000000E-01  1.9225917521339E-02  1.1576865359566E+00  1.4643825133234E+00
99  9.8000000000000E-01  1.1232325500561E-02  1.2577380390108E+00  1.5291665911443E+00
100  9.9000000000000E-01  4.1982593080486E-03  1.3464245733847E+00  1.5858961062755E+00
101  1.0000000000000E+00 -1.9170800277110E-03  1.4224497213242E+00  1.6330891442769E+00
102  1.0100000000000E+00 -7.1544268638739E-03  1.4846234261006E+00  1.6693532507626E+00