Sg    ONCVPSP-4.0.1  r_core=   1.10583   1.30748   1.20244   1.20244
106.0000     46.0000      220307    zatom,zion,pspd
8      11   3     4   600     0    pspcod,pspxc,lmax,lloc,mmax,r2well
5.99000000  5.00000000  0.00000000    rchrg fchrg qchrg
3     2     2     2     0    nproj
1     1           extension_switch
0                         2.0232340110109E+01 -1.0821565002068E+01 -3.6465732031251E-01
1  0.0000000000000E+00 -2.4347663885038E-08  7.3494577090827E-10  4.6301804335069E-08
2  1.0000000000000E-02  2.1353278322245E-01  5.2265118704683E-02 -5.5442862428497E-02
3  2.0000000000000E-02  4.2484722447960E-01  1.0453673321526E-01 -1.0984141472003E-01
4  3.0000000000000E-02  6.3175271338496E-01  1.5682027417897E-01 -1.6217620985985E-01
5  4.0000000000000E-02  8.3211370182027E-01  2.0911905651103E-01 -2.1147694931016E-01
6  5.0000000000000E-02  1.0238762391702E+00  2.6143325779931E-01 -2.5684562481716E-01
7  6.0000000000000E-02  1.2050933300898E+00  3.1375893969769E-01 -2.9747797470179E-01
8  7.0000000000000E-02  1.3739487513845E+00  3.6608712575568E-01 -3.3268274797368E-01
9  8.0000000000000E-02  1.5287789889286E+00  4.1840294839629E-01 -3.6189831590940E-01
10  9.0000000000000E-02  1.6680929852802E+00  4.7068487686179E-01 -3.8470622734870E-01
11  1.0000000000000E-01  1.7905894232973E+00  5.2290403691135E-01 -4.0084137001276E-01
12  1.1000000000000E-01  1.8951713100861E+00  5.7502363189537E-01 -4.1019847455600E-01
13  1.2000000000000E-01  1.9809576683877E+00  6.2699847356563E-01 -4.1283477955614E-01
14  1.3000000000000E-01  2.0472921883432E+00  6.7877462963001E-01 -4.0896876273004E-01
15  1.4000000000000E-01  2.0937487407153E+00  7.3028919364304E-01 -3.9897493465176E-01
16  1.5000000000000E-01  2.1201337022738E+00  7.8147018136049E-01 -3.8337478426926E-01
17  1.6000000000000E-01  2.1264850943338E+00  8.3223655619461E-01 -3.6282405852463E-01
18  1.7000000000000E-01  2.1130685854914E+00  8.8249838490439E-01 -3.3809664921628E-01
19  1.8000000000000E-01  2.0803704585522E+00  9.3215712315847E-01 -3.1006544664205E-01
20  1.9000000000000E-01  2.0290876886163E+00  9.8110602913066E-01 -2.7968059924795E-01
21  2.0000000000000E-01  1.9601153234214E+00  1.0292307018418E+00 -2.4794568922410E-01
22  2.1000000000000E-01  1.8745313975395E+00  1.0764097395593E+00 -2.1589239358421E-01
23  2.2000000000000E-01  1.7735796481361E+00  1.1225155122134E+00 -1.8455424677330E-01
24  2.3000000000000E-01  1.6586503310517E+00  1.1674150404998E+00 -1.5494015253367E-01
25  2.4000000000000E-01  1.5312594614016E+00  1.2109709731151E+00 -1.2800830825124E-01
26  2.5000000000000E-01  1.3930268222422E+00  1.2530426524239E+00 -1.0464120328989E-01
27  2.6000000000000E-01  1.2456530977869E+00  1.2934872577918E+00 -8.5622333379067E-02
28  2.7000000000000E-01  1.0908964939955E+00  1.3321610148417E+00 -7.1615235923596E-02
29  2.8000000000000E-01  9.3054920902597E-01  1.3689204580150E+00 -6.3145396664368E-02
30  2.9000000000000E-01  7.6641410915785E-01  1.4036237330451E+00 -6.0585507513081E-02
31  3.0000000000000E-01  6.0028195258103E-01  1.4361319252981E+00 -6.4144470242504E-02
32  3.1000000000000E-01  4.3390948430445E-01  1.4663103994051E+00 -7.3860443175191E-02
33  3.2000000000000E-01  2.6899870087633E-01  1.4940301352225E+00 -8.9598120726096E-02
34  3.3000000000000E-01  1.0717755426781E-01  1.5191690449172E+00 -1.1105032163915E-01
35  3.4000000000000E-01 -5.0017669106183E-02  1.5416132558962E+00 -1.3774384438538E-01
36  3.5000000000000E-01 -2.0115809484600E-01  1.5612583443999E+00 -1.6904943102626E-01
37  3.6000000000000E-01 -3.4493597204200E-01  1.5780105048607E+00 -2.0419556756383E-01
38  3.7000000000000E-01 -4.8017622962636E-01  1.5917876406049E+00 -2.4228574303056E-01
39  3.8000000000000E-01 -6.0584579826681E-01  1.6025203621552E+00 -2.8231869478642E-01
40  3.9000000000000E-01 -7.2106065883441E-01  1.6101528802722E+00 -3.2321108686136E-01
41  4.0000000000000E-01 -8.2509061754028E-01  1.6146437819586E+00 -3.6382200445733E-01
42  4.1000000000000E-01 -9.1736184479190E-01  1.6159666789316E+00 -4.0297860311327E-01
43  4.2000000000000E-01 -9.9745724895650E-01  1.6141107195443E+00 -4.3950222711996E-01
44  4.3000000000000E-01 -1.0651147869317E+00  1.6090809567793E+00 -4.7223430942535E-01
45  4.4000000000000E-01 -1.1202238402344E+00  1.6008985667371E+00 -5.0006138459139E-01
46  4.5000000000000E-01 -1.1628198078779E+00  1.5896009139672E+00 -5.2193858670649E-01
47  4.6000000000000E-01 -1.1930770854105E+00  1.5752414620121E+00 -5.3691106406567E-01
48  4.7000000000000E-01 -1.2113006130687E+00  1.5578895296179E+00 -5.4413281975120E-01
49  4.8000000000000E-01 -1.2179161851219E+00  1.5376298951697E+00 -5.4288257915107E-01
50  4.9000000000000E-01 -1.2134597173560E+00  1.5145622539991E+00 -5.3257638854792E-01
51  5.0000000000000E-01 -1.1985656705585E+00  1.4888005352359E+00 -5.1277675938619E-01
52  5.1000000000000E-01 -1.1739548252443E+00  1.4604720867953E+00 -4.8319828653741E-01
53  5.2000000000000E-01 -1.1404215971702E+00  1.4297167388658E+00 -4.4370978160855E-01
54  5.3000000000000E-01 -1.0988210749609E+00  1.3966857578496E+00 -3.9433306982130E-01
55  5.4000000000000E-01 -1.0500559509702E+00  1.3615407040678E+00 -3.3523869723562E-01
56  5.5000000000000E-01 -9.9506350488339E-01  1.3244522076560E+00 -2.6673888043198E-01
57  5.6000000000000E-01 -9.3480278707969E-01  1.2855986779043E+00 -1.8927810007510E-01
58  5.7000000000000E-01 -8.7024213590203E-01  1.2451649618357E+00 -1.0342179058156E-01
59  5.8000000000000E-01 -8.0234715016831E-01  1.2033409680517E+00 -9.8436086946051E-03
60  5.9000000000000E-01 -7.3206922585168E-01  1.1603202718048E+00  9.0688226736940E-02
61  6.0000000000000E-01 -6.6033475412415E-01  1.1162987168967E+00  1.9732504303651E-01
62  6.1000000000000E-01 -5.8803506706155E-01  1.0714730293634E+00  3.0915182098194E-01
63  6.2000000000000E-01 -5.1601720731515E-01  1.0260394570203E+00  4.2520090204090E-01
64  6.3000000000000E-01 -4.4507558893385E-01  9.8019244783753E-01  5.4446496221773E-01
65  6.4000000000000E-01 -3.7594460815001E-01  9.3412337883271E-01  6.6590899726100E-01
66  6.5000000000000E-01 -3.0929225512478E-01  8.8801934575772E-01  7.8848115056648E-01
67  6.6000000000000E-01 -2.4571477012666E-01  8.4206202235886E-01  9.1112230587659E-01
68  6.7000000000000E-01 -1.8573238009286E-01  7.9642659645897E-01  1.0327744573102E+00
69  6.8000000000000E-01 -1.2978614368090E-01  7.5128078859553E-01  1.1523879547745E+00
70  6.9000000000000E-01 -7.8235924445701E-02  7.0678395749576E-01  1.2689277990473E+00
71  7.0000000000000E-01 -3.1359502395290E-02  6.6308629532308E-01  1.3813792237421E+00
72  7.1000000000000E-01  1.0647176346164E-02  6.2032811442502E-01  1.4887528475488E+00
73  7.2000000000000E-01  4.7668623861273E-02  5.7863922628141E-01  1.5900897068556E+00
74  7.3000000000000E-01  7.9667334033281E-02  5.3813841251427E-01  1.6844664842757E+00
75  7.4000000000000E-01  1.0668024521687E-01  4.9893298718915E-01  1.7710012318836E+00
76  7.5000000000000E-01  1.2881419750166E-01  4.6111844921281E-01  1.8488598493147E+00
77  7.6000000000000E-01  1.4624045671691E-01  4.2477822340596E-01  1.9172635176091E+00
78  7.7000000000000E-01  1.5918839451034E-01  3.8998348878256E-01  1.9754972121314E+00
79  7.8000000000000E-01  1.6793843109456E-01  3.5679309267143E-01  2.0229193254410E+00
80  7.9000000000000E-01  1.7281436402424E-01  3.2525354953486E-01  2.0589723278532E+00
81  8.0000000000000E-01  1.7417522201447E-01  2.9539912362962E-01  2.0831942845776E+00
82  8.1000000000000E-01  1.7240679665518E-01  2.6725199497006E-01  2.0952309392630E+00
83  8.2000000000000E-01  1.6791301622476E-01  2.4082250834060E-01  2.0948479703131E+00
84  8.3000000000000E-01  1.6110733397799E-01  2.1610950531412E-01  2.0819429343554E+00
85  8.4000000000000E-01  1.5240430764560E-01  1.9310073931459E-01  2.0565563364364E+00
86  8.5000000000000E-01  1.4221154688168E-01  1.7177337367193E-01  2.0188812141452E+00
87  8.6000000000000E-01  1.3092220058527E-01  1.5209456231548E-01  1.9692705974912E+00
88  8.7000000000000E-01  1.1890814609846E-01  1.3402211221055E-01  1.9082422116289E+00
89  8.8000000000000E-01  1.0651402709830E-01  1.1750522584065E-01  1.8364798279820E+00
90  8.9000000000000E-01  9.4052266588434E-02  1.0248532096817E-01  1.7548307422169E+00
91  9.0000000000000E-01  8.1799155980903E-02  8.8896923574890E-02  1.6642989647658E+00
92  9.1000000000000E-01  6.9992091263415E-02  7.6668628307799E-02  1.5660338496087E+00
93  9.2000000000000E-01  5.8827993276972E-02  6.5724118968412E-02  1.4613140568555E+00
94  9.3000000000000E-01  4.8462911981954E-02  5.5983239627940E-02  1.3515269399090E+00
95  9.4000000000000E-01  3.9012775213625E-02  4.7363104882692E-02  1.2381436630514E+00
96  9.5000000000000E-01  3.0555201907490E-02  3.9779235648439E-02  1.1226905834815E+00
97  9.6000000000000E-01  2.3132259304896E-02  3.3146704802077E-02  1.0067176655068E+00
98  9.7000000000000E-01  1.6754004458188E-02  2.7381274990389E-02  8.9176492575429E-01
99  9.8000000000000E-01  1.1402613727033E-02  2.2400509118889E-02  7.7932812832212E-01
100  9.9000000000000E-01  7.0368711168555E-03  1.8124832486507E-02  6.7082514943929E-01
101  1.0000000000000E+00  3.5967584299960E-03  1.4478524318155E-02  5.6756460431793E-01
102  1.0100000000000E+00  1.0078683027688E-03  1.1390615632967E-02  4.7071846722789E-01
103  1.0200000000000E+00 -8.1465380789630E-04  8.7956700284993E-03  3.8130051289328E-01
104  1.0300000000000E+00 -1.9629380746635E-03  6.6344251649307E-03  3.0015244746295E-01
105  1.0400000000000E+00 -2.5343267813191E-03  4.8542556887650E-03  2.2793979885500E-01
106  1.0500000000000E+00 -2.6306615447891E-03  3.4094848088289E-03  1.6515909200328E-01
107  1.0600000000000E+00 -2.3710083943972E-03  2.2537103961222E-03  1.1222321247867E-01
108  1.0700000000000E+00 -1.8602848462748E-03  1.3529878097482E-03  6.9321963579712E-02
109  1.0800000000000E+00 -1.2049108099094E-03  6.9147955069977E-04  3.6509760875100E-02
110  1.0900000000000E+00 -5.5221335660382E-04  2.5577581661256E-04  1.3949257797166E-02
111  1.1000000000000E+00 -9.1250453954951E-05  3.4707347107730E-05  1.9608888263096E-03
112  1.1100000000000E+00  4.9231861336716E-06 -1.6321933602884E-06 -9.5160203882874E-05
113  1.1200000000000E+00  1.3432326702969E-07 -5.1446888274222E-08 -2.9108275538968E-06
114  1.13 -0. -0.  0.
115  1.14  0.  0.  0.
116  1.15  0.  0.  0.
117  1.16  0.  0.  0.
118  1.17  0.  0.  0.
119  1.18  0.  0.  0.
120  1.19  0.  0.  0.
121  1.20  0.  0.  0.
122  1.21  0.  0.  0.
123  1.22  0.  0.  0.
124  1.23  0.  0.  0.
125  1.24  0.  0.  0.
126  1.25  0.  0.  0.
127  1.26  0.  0.  0.
128  1.27  0.  0.  0.
129  1.28  0.  0.  0.
130  1.29  0.  0.  0.
131  1.30  0.  0.  0.
132  1.31  0.  0.  0.
133  1.32  0.  0.  0.
134  1.33  0.  0.  0.
135  1.34  0.  0.  0.
136  1.35  0.  0.  0.
137  1.36  0.  0.  0.
138  1.37  0.  0.  0.
139  1.38  0.  0.  0.
140  1.39  0.  0.  0.
141  1.40  0.  0.  0.
142  1.41  0.  0.  0.
143  1.42  0.  0.  0.
144  1.43  0.  0.  0.
145  1.44  0.  0.  0.
146  1.45  0.  0.  0.
147  1.46  0.  0.  0.
148  1.47  0.  0.  0.
149  1.48  0.  0.  0.
150  1.49  0.  0.  0.
151  1.50  0.  0.  0.
152  1.51  0.  0.  0.
153  1.52  0.  0.  0.
154  1.53  0.  0.  0.
155  1.54  0.  0.  0.
156  1.55  0.  0.  0.
157  1.56  0.  0.  0.
158  1.57  0.  0.  0.
159  1.58  0.  0.  0.
160  1.59  0.  0.  0.
161  1.60  0.  0.  0.
162  1.61  0.  0.  0.
163  1.62  0.  0.  0.
164  1.63  0.  0.  0.
165  1.64  0.  0.  0.
166  1.65  0.  0.  0.
167  1.66  0.  0.  0.
168  1.67  0.  0.  0.
169  1.68  0.  0.  0.
170  1.69  0.  0.  0.
171  1.70  0.  0.  0.
172  1.71  0.  0.  0.
173  1.72  0.  0.  0.
174  1.73  0.  0.  0.
175  1.74  0.  0.  0.
176  1.75  0.  0.  0.
177  1.76  0.  0.  0.
178  1.77  0.  0.  0.
179  1.78  0.  0.  0.
180  1.79  0.  0.  0.
181  1.80  0.  0.  0.
182  1.81  0.  0.  0.
183  1.82  0.  0.  0.
184  1.83  0.  0.  0.
185  1.84  0.  0.  0.
186  1.85  0.  0.  0.
187  1.86  0.  0.  0.
188  1.87  0.  0.  0.
189  1.88  0.  0.  0.
190  1.89  0.  0.  0.
191  1.90  0.  0.  0.
192  1.91  0.  0.  0.
193  1.92  0.  0.  0.
194  1.93  0.  0.  0.
195  1.94  0.  0.  0.
196  1.95  0.  0.  0.
197  1.96  0.  0.  0.
198  1.97  0.  0.  0.
199  1.98  0.  0.  0.
200  1.99  0.  0.  0.
201  2.00  0.  0.  0.
202  2.01  0.  0.  0.
203  2.02  0.  0.  0.
204  2.03  0.  0.  0.
205  2.04  0.  0.  0.
206  2.05  0.  0.  0.
207  2.06  0.  0.  0.
208  2.07  0.  0.  0.
209  2.08  0.  0.  0.
210  2.09  0.  0.  0.
211  2.10  0.  0.  0.
212  2.11  0.  0.  0.
213  2.12  0.  0.  0.
214  2.13  0.  0.  0.
215  2.14  0.  0.  0.
216  2.15  0.  0.  0.
217  2.16  0.  0.  0.
218  2.17  0.  0.  0.
219  2.18  0.  0.  0.
220  2.19  0.  0.  0.
221  2.20  0.  0.  0.
222  2.21  0.  0.  0.
223  2.22  0.  0.  0.
224  2.23  0.  0.  0.
225  2.24  0.  0.  0.
226  2.25  0.  0.  0.
227  2.26  0.  0.  0.
228  2.27  0.  0.  0.
229  2.28  0.  0.  0.
230  2.29  0.  0.  0.
231  2.30  0.  0.  0.
232  2.31  0.  0.  0.
233  2.32  0.  0.  0.
234  2.33  0.  0.  0.
235  2.34  0.  0.  0.
236  2.35  0.  0.  0.
237  2.36  0.  0.  0.
238  2.37  0.  0.  0.
239  2.38  0.  0.  0.
240  2.39  0.  0.  0.
241  2.40  0.  0.  0.
242  2.41  0.  0.  0.
243  2.42  0.  0.  0.
244  2.43  0.  0.  0.
245  2.44  0.  0.  0.
246  2.45  0.  0.  0.
247  2.46  0.  0.  0.
248  2.47  0.  0.  0.
249  2.48  0.  0.  0.
250  2.49  0.  0.  0.
251  2.50  0.  0.  0.
252  2.51  0.  0.  0.
253  2.52  0.  0.  0.
254  2.53  0.  0.  0.
255  2.54  0.  0.  0.
256  2.55  0.  0.  0.
257  2.56  0.  0.  0.
258  2.57  0.  0.  0.
259  2.58  0.  0.  0.
260  2.59  0.  0.  0.
261  2.60  0.  0.  0.
262  2.61  0.  0.  0.
263  2.62  0.  0.  0.
264  2.63  0.  0.  0.
265  2.64  0.  0.  0.
266  2.65  0.  0.  0.
267  2.66  0.  0.  0.
268  2.67  0.  0.  0.
269  2.68  0.  0.  0.
270  2.69  0.  0.  0.
271  2.70  0.  0.  0.
272  2.71  0.  0.  0.
273  2.72  0.  0.  0.
274  2.73  0.  0.  0.
275  2.74  0.  0.  0.
276  2.75  0.  0.  0.
277  2.76  0.  0.  0.
278  2.77  0.  0.  0.
279  2.78  0.  0.  0.
280  2.79  0.  0.  0.
281  2.80  0.  0.  0.
282  2.81  0.  0.  0.
283  2.82  0.  0.  0.
284  2.83  0.  0.  0.
285  2.84  0.  0.  0.
286  2.85  0.  0.  0.
287  2.86  0.  0.  0.
288  2.87  0.  0.  0.
289  2.88  0.  0.  0.
290  2.89  0.  0.  0.
291  2.90  0.  0.  0.
292  2.91  0.  0.  0.
293  2.92  0.  0.  0.
294  2.93  0.  0.  0.
295  2.94  0.  0.  0.
296  2.95  0.  0.  0.
297  2.96  0.  0.  0.
298  2.97  0.  0.  0.
299  2.98  0.  0.  0.
300  2.99  0.  0.  0.
301  3.00  0.  0.  0.
302  3.01  0.  0.  0.
303  3.02  0.  0.  0.
304  3.03  0.  0.  0.
305  3.04  0.  0.  0.
306  3.05  0.  0.  0.
307  3.06  0.  0.  0.
308  3.07  0.  0.  0.
309  3.08  0.  0.  0.
310  3.09  0.  0.  0.
311  3.10  0.  0.  0.
312  3.11  0.  0.  0.
313  3.12  0.  0.  0.
314  3.13  0.  0.  0.
315  3.14  0.  0.  0.
316  3.15  0.  0.  0.
317  3.16  0.  0.  0.
318  3.17  0.  0.  0.
319  3.18  0.  0.  0.
320  3.19  0.  0.  0.
321  3.20  0.  0.  0.
322  3.21  0.  0.  0.
323  3.22  0.  0.  0.
324  3.23  0.  0.  0.
325  3.24  0.  0.  0.
326  3.25  0.  0.  0.
327  3.26  0.  0.  0.
328  3.27  0.  0.  0.
329  3.28  0.  0.  0.
330  3.29  0.  0.  0.
331  3.30  0.  0.  0.
332  3.31  0.  0.  0.
333  3.32  0.  0.  0.
334  3.33  0.  0.  0.
335  3.34  0.  0.  0.
336  3.35  0.  0.  0.
337  3.36  0.  0.  0.
338  3.37  0.  0.  0.
339  3.38  0.  0.  0.
340  3.39  0.  0.  0.
341  3.40  0.  0.  0.
342  3.41  0.  0.  0.
343  3.42  0.  0.  0.
344  3.43  0.  0.  0.
345  3.44  0.  0.  0.
346  3.45  0.  0.  0.
347  3.46  0.  0.  0.
348  3.47  0.  0.  0.
349  3.48  0.  0.  0.
350  3.49  0.  0.  0.
351  3.50  0.  0.  0.
352  3.51  0.  0.  0.
353  3.52  0.  0.  0.
354  3.53  0.  0.  0.
355  3.54  0.  0.  0.
356  3.55  0.  0.  0.
357  3.56  0.  0.  0.
358  3.57  0.  0.  0.
359  3.58  0.  0.  0.
360  3.59  0.  0.  0.
361  3.60  0.  0.  0.
362  3.61  0.  0.  0.
363  3.62  0.  0.  0.
364  3.63  0.  0.  0.
365  3.64  0.  0.  0.
366  3.65  0.  0.  0.
367  3.66  0.  0.  0.
368  3.67  0.  0.  0.
369  3.68  0.  0.  0.
370  3.69  0.  0.  0.
371  3.70  0.  0.  0.
372  3.71  0.  0.  0.
373  3.72  0.  0.  0.
374  3.73  0.  0.  0.
375  3.74  0.  0.  0.
376  3.75  0.  0.  0.
377  3.76  0.  0.  0.
378  3.77  0.  0.  0.
379  3.78  0.  0.  0.
380  3.79  0.  0.  0.
381  3.80  0.  0.  0.
382  3.81  0.  0.  0.
383  3.82  0.  0.  0.
384  3.83  0.  0.  0.
385  3.84  0.  0.  0.
386  3.85  0.  0.  0.
387  3.86  0.  0.  0.
388  3.87  0.  0.  0.
389  3.88  0.  0.  0.
390  3.89  0.  0.  0.
391  3.90  0.  0.  0.
392  3.91  0.  0.  0.
393  3.92  0.  0.  0.
394  3.93  0.  0.  0.
395  3.94  0.  0.  0.
396  3.95  0.  0.  0.
397  3.96  0.  0.  0.
398  3.97  0.  0.  0.
399  3.98  0.  0.  0.
400  3.99  0.  0.  0.
401  4.00  0.  0.  0.
402  4.01  0.  0.  0.
403  4.02  0.  0.  0.
404  4.03  0.  0.  0.
405  4.04  0.  0.  0.
406  4.05  0.  0.  0.
407  4.06  0.  0.  0.
408  4.07  0.  0.  0.
409  4.08  0.  0.  0.
410  4.09  0.  0.  0.
411  4.10  0.  0.  0.
412  4.11  0.  0.  0.
413  4.12  0.  0.  0.
414  4.13  0.  0.  0.
415  4.14  0.  0.  0.
416  4.15  0.  0.  0.
417  4.16  0.  0.  0.
418  4.17  0.  0.  0.
419  4.18  0.  0.  0.
420  4.19  0.  0.  0.
421  4.20  0.  0.  0.
422  4.21  0.  0.  0.
423  4.22  0.  0.  0.
424  4.23  0.  0.  0.
425  4.24  0.  0.  0.
426  4.25  0.  0.  0.
427  4.26  0.  0.  0.
428  4.27  0.  0.  0.
429  4.28  0.  0.  0.
430  4.29  0.  0.  0.
431  4.30  0.  0.  0.
432  4.31  0.  0.  0.
433  4.32  0.  0.  0.
434  4.33  0.  0.  0.
435  4.34  0.  0.  0.
436  4.35  0.  0.  0.
437  4.36  0.  0.  0.
438  4.37  0.  0.  0.
439  4.38  0.  0.  0.
440  4.39  0.  0.  0.
441  4.40  0.  0.  0.
442  4.41  0.  0.  0.
443  4.42  0.  0.  0.
444  4.43  0.  0.  0.
445  4.44  0.  0.  0.
446  4.45  0.  0.  0.
447  4.46  0.  0.  0.
448  4.47  0.  0.  0.
449  4.48  0.  0.  0.
450  4.49  0.  0.  0.
451  4.50  0.  0.  0.
452  4.51  0.  0.  0.
453  4.52  0.  0.  0.
454  4.53  0.  0.  0.
455  4.54  0.  0.  0.
456  4.55  0.  0.  0.
457  4.56  0.  0.  0.
458  4.57  0.  0.  0.
459  4.58  0.  0.  0.
460  4.59  0.  0.  0.
461  4.60  0.  0.  0.
462  4.61  0.  0.  0.
463  4.62  0.  0.  0.
464  4.63  0.  0.  0.
465  4.64  0.  0.  0.
466  4.65  0.  0.  0.
467  4.66  0.  0.  0.
468  4.67  0.  0.  0.
469  4.68  0.  0.  0.
470  4.69  0.  0.  0.
471  4.70  0.  0.  0.
472  4.71  0.  0.  0.
473  4.72  0.  0.  0.
474  4.73  0.  0.  0.
475  4.74  0.  0.  0.
476  4.75  0.  0.  0.
477  4.76  0.  0.  0.
478  4.77  0.  0.  0.
479  4.78  0.  0.  0.
480  4.79  0.  0.  0.
481  4.80  0.  0.  0.
482  4.81  0.  0.  0.
483  4.82  0.  0.  0.
484  4.83  0.  0.  0.
485  4.84  0.  0.  0.
486  4.85  0.  0.  0.
487  4.86  0.  0.  0.
488  4.87  0.  0.  0.
489  4.88  0.  0.  0.
490  4.89  0.  0.  0.
491  4.90  0.  0.  0.
492  4.91  0.  0.  0.
493  4.92  0.  0.  0.
494  4.93  0.  0.  0.
495  4.94  0.  0.  0.
496  4.95  0.  0.  0.
497  4.96  0.  0.  0.
498  4.97  0.  0.  0.
499  4.98  0.  0.  0.
500  4.99  0.  0.  0.
501  5.00  0.  0.  0.
502  5.01  0.  0.  0.
503  5.02  0.  0.  0.
504  5.03  0.  0.  0.
505  5.04  0.  0.  0.
506  5.05  0.  0.  0.
507  5.06  0.  0.  0.
508  5.07  0.  0.  0.
509  5.08  0.  0.  0.
510  5.09  0.  0.  0.
511  5.10  0.  0.  0.
512  5.11  0.  0.  0.
513  5.12  0.  0.  0.
514  5.13  0.  0.  0.
515  5.14  0.  0.  0.
516  5.15  0.  0.  0.
517  5.16  0.  0.  0.
518  5.17  0.  0.  0.
519  5.18  0.  0.  0.
520  5.19  0.  0.  0.
521  5.20  0.  0.  0.
522  5.21  0.  0.  0.
523  5.22  0.  0.  0.
524  5.23  0.  0.  0.
525  5.24  0.  0.  0.
526  5.25  0.  0.  0.
527  5.26  0.  0.  0.
528  5.27  0.  0.  0.
529  5.28  0.  0.  0.
530  5.29  0.  0.  0.
531  5.30  0.  0.  0.
532  5.31  0.  0.  0.
533  5.32  0.  0.  0.
534  5.33  0.  0.  0.
535  5.34  0.  0.  0.
536  5.35  0.  0.  0.
537  5.36  0.  0.  0.
538  5.37  0.  0.  0.
539  5.38  0.  0.  0.
540  5.39  0.  0.  0.
541  5.40  0.  0.  0.
542  5.41  0.  0.  0.
543  5.42  0.  0.  0.
544  5.43  0.  0.  0.
545  5.44  0.  0.  0.
546  5.45  0.  0.  0.
547  5.46  0.  0.  0.
548  5.47  0.  0.  0.
549  5.48  0.  0.  0.
550  5.49  0.  0.  0.
551  5.50  0.  0.  0.
552  5.51  0.  0.  0.
553  5.52  0.  0.  0.
554  5.53  0.  0.  0.
555  5.54  0.  0.  0.
556  5.55  0.  0.  0.
557  5.56  0.  0.  0.
558  5.57  0.  0.  0.
559  5.58  0.  0.  0.
560  5.59  0.  0.  0.
561  5.60  0.  0.  0.
562  5.61  0.  0.  0.
563  5.62  0.  0.  0.
564  5.63  0.  0.  0.
565  5.64  0.  0.  0.
566  5.65  0.  0.  0.
567  5.66  0.  0.  0.
568  5.67  0.  0.  0.
569  5.68  0.  0.  0.
570  5.69  0.  0.  0.
571  5.70  0.  0.  0.
572  5.71  0.  0.  0.
573  5.72  0.  0.  0.
574  5.73  0.  0.  0.
575  5.74  0.  0.  0.
576  5.75  0.  0.  0.
577  5.76  0.  0.  0.
578  5.77  0.  0.  0.
579  5.78  0.  0.  0.
580  5.79  0.  0.  0.
581  5.80  0.  0.  0.
582  5.81  0.  0.  0.
583  5.82  0.  0.  0.
584  5.83  0.  0.  0.
585  5.84  0.  0.  0.
586  5.85  0.  0.  0.
587  5.86  0.  0.  0.
588  5.87  0.  0.  0.
589  5.88  0.  0.  0.
590  5.89  0.  0.  0.
591  5.90  0.  0.  0.
592  5.91  0.  0.  0.
593  5.92  0.  0.  0.
594  5.93  0.  0.  0.
595  5.94  0.  0.  0.
596  5.95  0.  0.  0.
597  5.96  0.  0.  0.
598  5.97  0.  0.  0.
599  5.98  0.  0.  0.
600  5.99  0.  0.  0.
1                        -9.4270865598362E+00 -2.0867111403867E-01
1  0.0000000000000E+00  2.5182302354487E-09  1.9982115351258E-08
2  1.0000000000000E-02  2.5759408170327E-03  4.6825308238528E-03
3  2.0000000000000E-02  1.0286621672801E-02  1.8666317070887E-02
4  3.0000000000000E-02  2.3080757042334E-02  4.1760772405359E-02
5  4.0000000000000E-02  4.0873333865993E-02  7.3651016228399E-02
6  5.0000000000000E-02  6.3546300930740E-02  1.1390197968997E-01
7  6.0000000000000E-02  9.0949524379212E-02  1.6196407678089E-01
8  7.0000000000000E-02  1.2290199985832E-01  2.1718036442342E-01
9  8.0000000000000E-02  1.5919330930083E-01  2.7879509549685E-01
10  9.0000000000000E-02  1.9958530795627E-01  3.4596355004296E-01
11  1.0000000000000E-01  2.4381402507874E-01  4.1776301274748E-01
12  1.1000000000000E-01  2.9159175966442E-01  4.9320474942345E-01
13  1.2000000000000E-01  3.4260935083275E-01  5.7124682184392E-01
14  1.3000000000000E-01  3.9653860088318E-01  6.5080756907323E-01
15  1.4000000000000E-01  4.5303482774960E-01  7.3077957458940E-01
16  1.5000000000000E-01  5.1173952253162E-01  8.1004393210448E-01
17  1.6000000000000E-01  5.7228308701451E-01  8.8748461917285E-01
18  1.7000000000000E-01  6.3428762560504E-01  9.6200278649524E-01
19  1.8000000000000E-01  6.9736976591077E-01  1.0325307723021E+00
20  1.9000000000000E-01  7.6114348227478E-01  1.0980456553302E+00
21  2.0000000000000E-01  8.2522289694126E-01  1.1575821666398E+00
22  2.1000000000000E-01  8.8922503416249E-01  1.2102447897730E+00
23  2.2000000000000E-01  9.5277250345181E-01  1.2552188904097E+00
24  2.3000000000000E-01  1.0154960893265E+00  1.2917807305683E+00
25  2.4000000000000E-01  1.0770372262507E+00  1.3193062383458E+00
26  2.5000000000000E-01  1.1370503390609E+00  1.3372784219547E+00
27  2.6000000000000E-01  1.1952050309139E+00  1.3452933361522E+00
28  2.7000000000000E-01  1.2511881027119E+00  1.3430645297802E+00
29  2.8000000000000E-01  1.3047053900097E+00  1.3304259247419E+00
30  2.9000000000000E-01  1.3554834055592E+00  1.3073330990109E+00
31  3.0000000000000E-01  1.4032707778804E+00  1.2738629688675E+00
32  3.1000000000000E-01  1.4478394785218E+00  1.2302118881372E+00
33  3.2000000000000E-01  1.4889858329732E+00  1.1766922044291E+00
34  3.3000000000000E-01  1.5265313124761E+00  1.1137273338911E+00
35  3.4000000000000E-01  1.5603231062311E+00  1.0418454364778E+00
36  3.5000000000000E-01  1.5902344756819E+00  9.6167179286267E-01
37  3.6000000000000E-01  1.6161648946569E+00  8.7392000160017E-01
38  3.7000000000000E-01  1.6380399811301E+00  7.7938213070614E-01
39  3.8000000000000E-01  1.6558112282179E+00  6.7891797122442E-01
40  3.9000000000000E-01  1.6694555437303E+00  5.7344355138794E-01
41  4.0000000000000E-01  1.6789746091277E+00  4.6391907849735E-01
42  4.1000000000000E-01  1.6843940700929E+00  3.5133648151749E-01
43  4.2000000000000E-01  1.6857625720925E+00  2.3670673055139E-01
44  4.3000000000000E-01  1.6831506552734E+00  1.2104710977881E-01
45  4.4000000000000E-01  1.6766495238096E+00  5.3686181553425E-03
46  4.5000000000000E-01  1.6663697053840E+00 -1.0933633275456E-01
47  4.6000000000000E-01  1.6524396168595E+00 -2.2210576188578E-01
48  4.7000000000000E-01  1.6350040523706E+00 -3.3201935059381E-01
49  4.8000000000000E-01  1.6142226100532E+00 -4.3820892320364E-01
50  4.9000000000000E-01  1.5902680734441E+00 -5.3986804984863E-01
51  5.0000000000000E-01  1.5633247632250E+00 -6.3626066072748E-01
52  5.1000000000000E-01  1.5335868744792E+00 -7.2672857769969E-01
53  5.2000000000000E-01  1.5012568139890E+00 -8.1069788692333E-01
54  5.3000000000000E-01  1.4665435513303E+00 -8.8768409468486E-01
55  5.4000000000000E-01  1.4296609966609E+00 -9.5729602733154E-01
56  5.5000000000000E-01  1.3908264171390E+00 -1.0192384549504E+00
57  5.6000000000000E-01  1.3502589028890E+00 -1.0733134368153E+00
58  5.7000000000000E-01  1.3081778923587E+00 -1.1194204043237E+00
59  5.8000000000000E-01  1.2648017658070E+00 -1.1575550138755E+00
60  5.9000000000000E-01  1.2203465145398E+00 -1.1878068176492E+00
61  6.0000000000000E-01  1.1750244923868E+00 -1.2103558142626E+00
62  6.1000000000000E-01  1.1290432548072E+00 -1.2254679536989E+00
63  6.2000000000000E-01  1.0826044899257E+00 -1.2334896814665E+00
64  6.3000000000000E-01  1.0359030447578E+00 -1.2348416156640E+00
65  6.4000000000000E-01  9.8912604888719E-01 -1.2300114573748E+00
66  6.5000000000000E-01  9.4245213691442E-01 -1.2195462396321E+00
67  6.6000000000000E-01  8.9605077012006E-01 -1.2040440231058E+00
68  6.7000000000000E-01  8.5008165697024E-01 -1.1841451477762E+00
69  6.8000000000000E-01  8.0469427135045E-01 -1.1605231492972E+00
70  6.9000000000000E-01  7.6002746673944E-01 -1.1338754466951E+00
71  7.0000000000000E-01  7.1620918393203E-01 -1.1049139046977E+00
72  7.1000000000000E-01  6.7335624938442E-01 -1.0743553695812E+00
73  7.2000000000000E-01  6.3157426078597E-01 -1.0429122722005E+00
74  7.3000000000000E-01  5.9095755605300E-01 -1.0112833861027E+00
75  7.4000000000000E-01  5.5158926158925E-01 -9.8014482257981E-01
76  7.5000000000000E-01  5.1354141535786E-01 -9.5014133844890E-01
77  7.6000000000000E-01  4.7687516005709E-01 -9.2187802651868E-01
78  7.7000000000000E-01  4.4164100147942E-01 -8.9591245333007E-01
79  7.8000000000000E-01  4.0787912695721E-01 -8.7274730405548E-01
80  7.9000000000000E-01  3.7561977865169E-01 -8.5282359057359E-01
81  8.0000000000000E-01  3.4488367632073E-01 -8.3651447583552E-01
82  8.1000000000000E-01  3.1568248410241E-01 -8.2411976579362E-01
83  8.2000000000000E-01  2.8801931577002E-01 -8.1586111941630E-01
84  8.3000000000000E-01  2.6188927284928E-01 -8.1187802765415E-01
85  8.4000000000000E-01  2.3728000993831E-01 -8.1222461360188E-01
86  8.5000000000000E-01  2.1417232153358E-01 -8.1686730840882E-01
87  8.6000000000000E-01  1.9254074464269E-01 -8.2568346058516E-01
88  8.7000000000000E-01  1.7235417145661E-01 -8.3846094003492E-01
89  8.8000000000000E-01  1.5357646636399E-01 -8.5489880219800E-01
90  8.9000000000000E-01  1.3616708161852E-01 -8.7460908184045E-01
91  9.0000000000000E-01  1.2008166602285E-01 -8.9711979001410E-01
92  9.1000000000000E-01  1.0527266107042E-01 -9.2187919121824E-01
93  9.2000000000000E-01  9.1689879095499E-02 -9.4826144053176E-01
94  9.3000000000000E-01  7.9281058124243E-02 -9.7557366214671E-01
95  9.4000000000000E-01  6.7992388300430E-02 -1.0030645510274E+00
96  9.5000000000000E-01  5.7769004981417E-02 -1.0299345780886E+00
97  9.6000000000000E-01  4.8555443866295E-02 -1.0553478760792E+00
98  9.7000000000000E-01  4.0296053831199E-02 -1.0784458780876E+00
99  9.8000000000000E-01  3.2935363507797E-02 -1.0983627730939E+00
100  9.9000000000000E-01  2.6418398050853E-02 -1.1142428331766E+00
101  1.0000000000000E+00  2.0690942998507E-02 -1.1252596548137E+00
102  1.0100000000000E+00  1.5699752633236E-02 -1.1306373421935E+00
103  1.0200000000000E+00  1.1392700799531E-02 -1.1296736436704E+00
104  1.0300000000000E+00  7.7188727214255E-03 -1.1217650336130E+00
105  1.0400000000000E+00  4.6285969844228E-03 -1.1064337111055E+00
106  1.0500000000000E+00  2.0734174961135E-03 -1.0833564645211E+00
107  1.0600000000000E+00  6.0059082887093E-06 -1.0523953273004E+00
108  1.0700000000000E+00 -1.6199843348431E-03 -1.0136299256016E+00
109  1.0800000000000E+00 -2.8501204743374E-03 -9.6739139335183E-01
110  1.0900000000000E+00 -3.7294469945485E-03 -9.1429771625831E-01
111  1.1000000000000E+00 -4.3027918189559E-03 -8.5529014908770E-01
112  1.1100000000000E+00 -4.6151215962179E-03 -7.9167098211532E-01
113  1.1200000000000E+00 -4.7112101735813E-03 -7.2503887616113E-01
114  1.1300000000000E+00 -4.6332981858078E-03 -6.5695106889573E-01
115  1.1400000000000E+00 -4.4199388213810E-03 -5.8877937005686E-01
116  1.1500000000000E+00 -4.1058764639666E-03 -5.2171285635137E-01
117  1.1600000000000E+00 -3.7220010147405E-03 -4.5676377304401E-01
118  1.1700000000000E+00 -3.2953648556910E-03 -3.9477560251386E-01
119  1.1800000000000E+00 -2.8492516043553E-03 -3.3643261520347E-01
120  1.1900000000000E+00 -2.4032880299522E-03 -2.8227055177910E-01
121  1.2000000000000E+00 -1.9735905415267E-03 -2.3268808476789E-01
122  1.2100000000000E+00 -1.5729378581270E-03 -1.8795871760227E-01
123  1.2200000000000E+00 -1.2109612238468E-03 -1.4824284556807E-01
124  1.2300000000000E+00 -8.9434991785855E-04 -1.1359915481297E-01
125  1.2400000000000E+00 -6.2703961755649E-04 -8.3997349741755E-02
126  1.2500000000000E+00 -4.1130776315608E-04 -5.9253552573792E-02
127  1.2600000000000E+00 -2.4759816960452E-04 -3.9115514042552E-02
128  1.2700000000000E+00 -1.3182373865680E-04 -2.3467026950828E-02
129  1.2800000000000E+00 -5.7855354259400E-05 -1.2085002912755E-02
130  1.2900000000000E+00 -1.7789548629448E-05 -4.6611435103092E-03
131  1.3000000000000E+00 -2.1713247976030E-06 -8.1182255182628E-04
132  1.3100000000000E+00  7.0438348675336E-08  4.0575879895236E-05
133  1.3200000000000E+00 -2.3736737211532E-08 -1.1583127733449E-05
134  1.33  0.  0.
135  1.34  0.  0.
136  1.35  0.  0.
137  1.36  0.  0.
138  1.37  0.  0.
139  1.38  0.  0.
140  1.39  0.  0.
141  1.40  0.  0.
142  1.41  0.  0.