Np    ONCVPSP-4.0.1  r_core=   1.25290   1.25290   1.50818   1.50818
93.0000     33.0000      230727    zatom,zion,pspd
8      11   3     4   600     0    pspcod,pspxc,lmax,lloc,mmax,r2well
5.99000000  4.00000000  0.00000000    rchrg fchrg qchrg
3     2     2     2     0    nproj
1     1           extension_switch
0                         2.2475725984789E+01  2.4919324542295E+00 -1.1288277950924E+00
1  0.0000000000000E+00 -4.1475697321047E-08  1.4487189470280E-07 -1.6480626308102E-09
2  1.0000000000000E-02  1.4323054427904E-01 -7.1929392331011E-02  2.7772856834794E-02
3  2.0000000000000E-02  2.8548061453681E-01 -1.4217737271657E-01  5.5440459782702E-02
4  3.0000000000000E-02  4.2578385753353E-01 -2.0910423217912E-01  8.2898426221916E-02
5  4.0000000000000E-02  5.6320179986328E-01 -2.7115242767617E-01  1.1004410471275E-01
6  5.0000000000000E-02  6.9683689481291E-01 -3.2688460439355E-01  1.3677741268711E-01
7  6.0000000000000E-02  8.2584452872576E-01 -3.7501805407557E-01  1.6300164194457E-01
8  7.0000000000000E-02  9.4944369091358E-01 -4.1445459905516E-01  1.8862422330301E-01
9  8.0000000000000E-02  1.0669260526352E+00 -4.4430503651881E-01  2.1355744339970E-01
10  9.0000000000000E-02  1.1776632499258E+00 -4.6390744967084E-01  2.3771910853858E-01
11  1.0000000000000E-01  1.2811122205155E+00 -4.7283888629666E-01  2.6103315253402E-01
12  1.1000000000000E-01  1.3768185049300E+00 -4.7092011452365E-01  2.8343018760550E-01
13  1.2000000000000E-01  1.4644174841735E+00 -4.5821338359779E-01  3.0484799942030E-01
14  1.3000000000000E-01  1.5436335891497E+00 -4.3501333721576E-01  3.2523198925322E-01
15  1.4000000000000E-01  1.6142775781426E+00 -4.0183144130362E-01  3.4453556782834E-01
16  1.5000000000000E-01  1.6762420362865E+00 -3.5937449022130E-01  3.6272050663438E-01
17  1.6000000000000E-01  1.7294953031452E+00 -3.0851793870631E-01  3.7975725328334E-01
18  1.7000000000000E-01  1.7740740796186E+00 -2.5027496556347E-01  3.9562521775180E-01
19  1.8000000000000E-01  1.8100750019517E+00 -1.8576230408388E-01  4.1031303606804E-01
20  1.9000000000000E-01  1.8376454974812E+00 -1.1616396932013E-01  4.2381881717415E-01
21  2.0000000000000E-01  1.8569742530652E+00 -4.2694070636569E-02  4.3615037731305E-01
22  2.1000000000000E-01  1.8682816324137E+00  3.3440082420661E-02  4.4732546440796E-01
23  2.2000000000000E-01  1.8718103726254E+00  1.1107339249404E-01  4.5737197258172E-01
24  2.3000000000000E-01  1.8678168733866E+00  1.8911577471193E-01  4.6632814429680E-01
25  2.4000000000000E-01  1.8565633650775E+00  2.6658130928450E-01  4.7424275469560E-01
26  2.5000000000000E-01  1.8383112054072E+00  3.4261283886189E-01  4.8117526971511E-01
27  2.6000000000000E-01  1.8133155093920E+00  4.1650126039095E-01  4.8719596658114E-01
28  2.7000000000000E-01  1.7818212660229E+00  4.8769894247631E-01  4.9238600250591E-01
29  2.8000000000000E-01  1.7440610385631E+00  5.5582689856098E-01  4.9683741496934E-01
30  2.9000000000000E-01  1.7002542859717E+00  6.2067555705448E-01  5.0065303500532E-01
31  3.0000000000000E-01  1.6506082824585E+00  6.8219918493771E-01  5.0394629357522E-01
32  3.1000000000000E-01  1.5953205526679E+00  7.4050423431044E-01  5.0684090050957E-01
33  3.2000000000000E-01  1.5345826834582E+00  7.9583208485422E-01  5.0947037573255E-01
34  3.3000000000000E-01  1.4685853215966E+00  8.4853684259029E-01  5.1197741361978E-01
35  3.4000000000000E-01  1.3975241216506E+00  8.9905902051331E-01  5.1451306341536E-01
36  3.5000000000000E-01  1.3216063714582E+00  9.4789606426261E-01  5.1723571165194E-01
37  3.6000000000000E-01  1.2410579950451E+00  9.9557079147993E-01  5.2030985644386E-01
38  3.7000000000000E-01  1.1561306156674E+00  1.0425988834461E+00  5.2390466828692E-01
39  3.8000000000000E-01  1.0671083553928E+00  1.0894565997395E+00  5.2819233749392E-01
40  3.9000000000000E-01  9.7431405253250E-01  1.1365498799652E+00  5.3334621448153E-01
41  4.0000000000000E-01  8.7811459415980E-01  1.1841859513210E+00  5.3953875563209E-01
42  4.1000000000000E-01  7.7892508740722E-01  1.2325484784024E+00  5.4693929418790E-01
43  4.2000000000000E-01  6.7721162937536E-01  1.2816771749053E+00  5.5571166238222E-01
44  4.3000000000000E-01  5.7349248013440E-01  1.3314526496358E+00  5.6601169754194E-01
45  4.4000000000000E-01  4.6833749501395E-01  1.3815870862829E+00  5.7798467098304E-01
46  4.5000000000000E-01  3.6236572945903E-01  1.4316211634625E+00  5.9176268393153E-01
47  4.6000000000000E-01  2.5624119031971E-01  1.4809274148941E+00  6.0746207922412E-01
48  4.7000000000000E-01  1.5066676954987E-01  1.5287200160121E+00  6.2518092097817E-01
49  4.8000000000000E-01  4.6376457878899E-02  1.5740707698048E+00  6.4499659659884E-01
50  4.9000000000000E-01 -5.5874004928820E-02  1.6159308581924E+00  6.6696359627893E-01
51  5.0000000000000E-01 -1.5531783204729E-01  1.6531577325323E+00  6.9111152444827E-01
52  5.1000000000000E-01 -2.5118898432308E-01  1.6845463441190E+00  7.1744339539380E-01
53  5.2000000000000E-01 -3.4273475787408E-01  1.7088637684486E+00  7.4593426149864E-01
54  5.3000000000000E-01 -4.2922883342945E-01  1.7248861602659E+00  7.7653021728467E-01
55  5.4000000000000E-01 -5.0998443529050E-01  1.7314368937667E+00  8.0914781578716E-01
56  5.5000000000000E-01 -5.8436723771949E-01  1.7274246963824E+00  8.4367392588872E-01
57  5.6000000000000E-01 -6.5180765775948E-01  1.7118805767686E+00  8.7996605028220E-01
58  5.7000000000000E-01 -7.1181218592152E-01  1.6839923780882E+00  9.1785311395027E-01
59  5.8000000000000E-01 -7.6397342945771E-01  1.6431358553567E+00  9.5713672270572E-01
60  5.9000000000000E-01 -8.0797857632436E-01  1.5889012781997E+00  9.9759288071885E-01
61  6.0000000000000E-01 -8.4361603036342E-01  1.5211146944470E+00  1.0389741453721E+00
62  6.1000000000000E-01 -8.7078001833386E-01  1.4398531511266E+00  1.0810121875356E+00
63  6.2000000000000E-01 -8.8947302561452E-01  1.3454533523542E+00  1.1234207157599E+00
64  6.3000000000000E-01 -8.9980597788347E-01  1.2385134323746E+00  1.1658987142207E+00
65  6.4000000000000E-01 -9.0199614894971E-01  1.1198877301829E+00  1.2081339367984E+00
66  6.5000000000000E-01 -8.9636283818930E-01  9.9067466305370E-01  1.2498065936613E+00
67  6.6000000000000E-01 -8.8332092274353E-01  8.5219800319979E-01  1.2905931623377E+00
68  6.7000000000000E-01 -8.6337244786778E-01  7.0598205815752E-01  1.3301702526529E+00
69  6.8000000000000E-01 -8.3709647179308E-01  5.5372143520799E-01  1.3682184541565E+00
70  6.9000000000000E-01 -8.0513742758838E-01  3.9724622766610E-01  1.4044260958020E+00
71  7.0000000000000E-01 -7.6819230243730E-01  2.3848359145134E-01  1.4384928506351E+00
72  7.1000000000000E-01 -7.2699696339418E-01  7.9416780168631E-02  1.4701331230020E+00
73  7.2000000000000E-01 -6.8231197729904E-01 -7.7957226817257E-02  1.4990791621600E+00
74  7.3000000000000E-01 -6.3490828068201E-01 -2.3167033779423E-01  1.5250838539534E+00
75  7.4000000000000E-01 -5.8555305308920E-01 -3.7982504277290E-01  1.5479231511600E+00
76  7.5000000000000E-01 -5.3499613456859E-01 -5.2063406715125E-01  1.5673981129284E+00
77  7.6000000000000E-01 -4.8395730564764E-01 -6.5245693697431E-01  1.5833365340994E+00
78  7.7000000000000E-01 -4.3311471689995E-01 -7.7383251132665E-01  1.5955941557965E+00
79  7.8000000000000E-01 -3.8309471627939E-01 -8.8350666767568E-01  1.6040554591443E+00
80  7.9000000000000E-01 -3.3446327717751E-01 -9.8045447844316E-01  1.6086340539913E+00
81  8.0000000000000E-01 -2.8771918017220E-01 -1.0638963865777E+00  1.6092726837533E+00
82  8.1000000000000E-01 -2.4328904834802E-01 -1.1333080688236E+00  1.6059428756717E+00
83  8.2000000000000E-01 -2.0152428159876E-01 -1.1884238618927E+00  1.5986442726374E+00
84  8.3000000000000E-01 -1.6269988119333E-01 -1.2292338129543E+00  1.5874036880738E+00
85  8.4000000000000E-01 -1.2701510375098E-01 -1.2559745960557E+00  1.5722739290398E+00
86  8.5000000000000E-01 -9.4595835182944E-02 -1.2691147048616E+00  1.5533324346386E+00
87  8.6000000000000E-01 -6.5498531493620E-02 -1.2693344846154E+00  1.5306797769596E+00
88  8.7000000000000E-01 -3.9715535775086E-02 -1.2575016982437E+00  1.5044380702015E+00
89  8.8000000000000E-01 -1.7181550211791E-02 -1.2346434296490E+00  1.4747493304278E+00
90  8.9000000000000E-01  2.2189808849468E-03 -1.2019152088895E+00  1.4417738237576E+00
91  9.0000000000000E-01  1.8643835671138E-02 -1.1605682975195E+00  1.4056884349417E+00
92  9.1000000000000E-01  3.2284592089167E-02 -1.1119160971540E+00  1.3666850814676E+00
93  9.2000000000000E-01  4.3358081356329E-02 -1.0573006405935E+00  1.3249691909138E+00
94  9.3000000000000E-01  5.2097971730615E-02 -9.9806009369522E-01  1.2807582515650E+00
95  9.4000000000000E-01  5.8746720269892E-02 -9.3549813952975E-01  1.2342804386606E+00
96  9.5000000000000E-01  6.3548107677375E-02 -8.7085603680076E-01  1.1857733114510E+00
97  9.6000000000000E-01  6.6740543440187E-02 -8.0528804516170E-01  1.1354825698167E+00
98  9.7000000000000E-01  6.8551296405946E-02 -7.3984079451237E-01  1.0836608538965E+00
99  9.8000000000000E-01  6.9191770804928E-02 -6.7543704726069E-01  1.0305665662686E+00
100  9.9000000000000E-01  6.8853910676664E-02 -6.1286416583861E-01  9.7646269396472E-01
101  1.0000000000000E+00  6.7707777752622E-02 -5.5276745607550E-01  9.2161560717881E-01
102  1.0100000000000E+00  6.5900310090501E-02 -4.9564841389477E-01  8.6629381306077E-01
103  1.0200000000000E+00  6.3555231957796E-02 -4.4186776108571E-01  8.1076664654362E-01
104  1.0300000000000E+00  6.0774050335167E-02 -3.9165301825852E-01  7.5530288569881E-01
105  1.0400000000000E+00  5.7638040400773E-02 -3.4511023129793E-01  7.0016928656061E-01
106  1.0500000000000E+00  5.4211091640586E-02 -3.0223934253888E-01  6.4562904155656E-01
107  1.0600000000000E+00  5.0543257886144E-02 -2.6295258017762E-01  5.9194017635857E-01
108  1.0700000000000E+00  4.6674828266277E-02 -2.2709512825677E-01  5.3935391183851E-01
109  1.0800000000000E+00  4.2640711255445E-02 -1.9446723354483E-01  4.8811303052831E-01
110  1.0900000000000E+00  3.8474900053939E-02 -1.6484680304831E-01  4.3845030006644E-01
111  1.1000000000000E+00  3.4214763308729E-02 -1.3801144315828E-01  3.9058701920133E-01
112  1.1100000000000E+00  2.9904879714335E-02 -1.1375878585130E-01  3.4473176441809E-01
113  1.1200000000000E+00  2.5600106826020E-02 -9.1923834116317E-02  3.0107942674746E-01
114  1.1300000000000E+00  2.1367542158295E-02 -7.2391933892073E-02  2.5981063821596E-01
115  1.1400000000000E+00  1.7286996735093E-02 -5.5105838147953E-02  2.2109169523496E-01
116  1.1500000000000E+00  1.3449556143440E-02 -4.0065165385053E-02  1.8507509147691E-01
117  1.1600000000000E+00  9.9537502434925E-03 -2.7316364678962E-02  1.5190077498909E-01
118  1.1700000000000E+00  6.8988143327764E-03 -1.6931154472562E-02  1.2169826255386E-01
119  1.1800000000000E+00  4.3742327931197E-03 -8.9705015160178E-03  9.4589576135288E-02
120  1.1900000000000E+00  2.4448461463264E-03 -3.4314481087550E-03  7.0693135871578E-02
121  1.2000000000000E+00  1.0777076360712E-03 -1.5405428543187E-05  5.0087787358159E-02
122  1.2100000000000E+00  2.1033340400535E-04  1.6870490266700E-03  3.2886167573893E-02
123  1.2200000000000E+00 -2.0660742559359E-04  2.0414567666514E-03  1.9243339190533E-02
124  1.2300000000000E+00 -2.7729224764227E-04  1.5196002351014E-03  9.2436925091895E-03
125  1.2400000000000E+00 -1.4853787186726E-04  6.5369740898124E-04  2.8889970870053E-03
126  1.2500000000000E+00 -1.4582121860292E-05  5.6384319734883E-05  1.9049408670808E-04
127  1.2600000000000E+00  4.8389230887666E-07 -1.7905934475129E-06 -5.3263540717180E-06
128  1.2700000000000E+00  1.3240987218760E-07 -5.3867471963619E-07 -2.0348685923382E-06
129  1.28 -0.  0. -0.
130  1.29  0.  0.  0.
131  1.30  0.  0.  0.
132  1.31  0.  0.  0.
133  1.32  0.  0.  0.
134  1.33  0.  0.  0.
135  1.34  0.  0.  0.
136  1.35  0.  0.  0.
137  1.36  0.  0.  0.
138  1.37  0.  0.  0.
139  1.38  0.  0.  0.
140  1.39  0.  0.  0.
141  1.40  0.  0.  0.
142  1.41  0.  0.  0.
143  1.42  0.  0.  0.
144  1.43  0.  0.  0.
145  1.44  0.  0.  0.
146  1.45  0.  0.  0.
147  1.46  0.  0.  0.
148  1.47  0.  0.  0.
149  1.48  0.  0.  0.
150  1.49  0.  0.  0.
151  1.50  0.  0.  0.
152  1.51  0.  0.  0.
153  1.52  0.  0.  0.
154  1.53  0.  0.  0.
155  1.54  0.  0.  0.
156  1.55  0.  0.  0.
157  1.56  0.  0.  0.
158  1.57  0.  0.  0.
159  1.58  0.  0.  0.
160  1.59  0.  0.  0.
161  1.60  0.  0.  0.
162  1.61  0.  0.  0.
163  1.62  0.  0.  0.
164  1.63  0.  0.  0.
165  1.64  0.  0.  0.
166  1.65  0.  0.  0.
167  1.66  0.  0.  0.
168  1.67  0.  0.  0.
169  1.68  0.  0.  0.
170  1.69  0.  0.  0.
171  1.70  0.  0.  0.
172  1.71  0.  0.  0.
173  1.72  0.  0.  0.
174  1.73  0.  0.  0.
175  1.74  0.  0.  0.
176  1.75  0.  0.  0.
177  1.76  0.  0.  0.
178  1.77  0.  0.  0.
179  1.78  0.  0.  0.
180  1.79  0.  0.  0.
181  1.80  0.  0.  0.
182  1.81  0.  0.  0.
183  1.82  0.  0.  0.
184  1.83  0.  0.  0.
185  1.84  0.  0.  0.
186  1.85  0.  0.  0.
187  1.86  0.  0.  0.
188  1.87  0.  0.  0.
189  1.88  0.  0.  0.
190  1.89  0.  0.  0.
191  1.90  0.  0.  0.
192  1.91  0.  0.  0.
193  1.92  0.  0.  0.
194  1.93  0.  0.  0.
195  1.94  0.  0.  0.
196  1.95  0.  0.  0.
197  1.96  0.  0.  0.
198  1.97  0.  0.  0.
199  1.98  0.  0.  0.
200  1.99  0.  0.  0.
201  2.00  0.  0.  0.
202  2.01  0.  0.  0.
203  2.02  0.  0.  0.
204  2.03  0.  0.  0.
205  2.04  0.  0.  0.
206  2.05  0.  0.  0.
207  2.06  0.  0.  0.
208  2.07  0.  0.  0.
209  2.08  0.  0.  0.
210  2.09  0.  0.  0.
211  2.10  0.  0.  0.
212  2.11  0.  0.  0.
213  2.12  0.  0.  0.
214  2.13  0.  0.  0.
215  2.14  0.  0.  0.
216  2.15  0.  0.  0.
217  2.16  0.  0.  0.
218  2.17  0.  0.  0.
219  2.18  0.  0.  0.
220  2.19  0.  0.  0.
221  2.20  0.  0.  0.
222  2.21  0.  0.  0.
223  2.22  0.  0.  0.
224  2.23  0.  0.  0.
225  2.24  0.  0.  0.
226  2.25  0.  0.  0.
227  2.26  0.  0.  0.
228  2.27  0.  0.  0.
229  2.28  0.  0.  0.
230  2.29  0.  0.  0.
231  2.30  0.  0.  0.
232  2.31  0.  0.  0.
233  2.32  0.  0.  0.
234  2.33  0.  0.  0.
235  2.34  0.  0.  0.
236  2.35  0.  0.  0.
237  2.36  0.  0.  0.
238  2.37  0.  0.  0.
239  2.38  0.  0.  0.
240  2.39  0.  0.  0.
241  2.40  0.  0.  0.
242  2.41  0.  0.  0.
243  2.42  0.  0.  0.
244  2.43  0.  0.  0.
245  2.44  0.  0.  0.
246  2.45  0.  0.  0.
247  2.46  0.  0.  0.
248  2.47  0.  0.  0.
249  2.48  0.  0.  0.
250  2.49  0.  0.  0.
251  2.50  0.  0.  0.
252  2.51  0.  0.  0.
253  2.52  0.  0.  0.
254  2.53  0.  0.  0.
255  2.54  0.  0.  0.
256  2.55  0.  0.  0.
257  2.56  0.  0.  0.
258  2.57  0.  0.  0.
259  2.58  0.  0.  0.
260  2.59  0.  0.  0.
261  2.60  0.  0.  0.
262  2.61  0.  0.  0.
263  2.62  0.  0.  0.
264  2.63  0.  0.  0.
265  2.64  0.  0.  0.
266  2.65  0.  0.  0.
267  2.66  0.  0.  0.
268  2.67  0.  0.  0.
269  2.68  0.  0.  0.
270  2.69  0.  0.  0.
271  2.70  0.  0.  0.
272  2.71  0.  0.  0.
273  2.72  0.  0.  0.
274  2.73  0.  0.  0.
275  2.74  0.  0.  0.
276  2.75  0.  0.  0.
277  2.76  0.  0.  0.
278  2.77  0.  0.  0.
279  2.78  0.  0.  0.
280  2.79  0.  0.  0.
281  2.80  0.  0.  0.
282  2.81  0.  0.  0.
283  2.82  0.  0.  0.
284  2.83  0.  0.  0.
285  2.84  0.  0.  0.
286  2.85  0.  0.  0.
287  2.86  0.  0.  0.
288  2.87  0.  0.  0.
289  2.88  0.  0.  0.
290  2.89  0.  0.  0.
291  2.90  0.  0.  0.
292  2.91  0.  0.  0.
293  2.92  0.  0.  0.
294  2.93  0.  0.  0.
295  2.94  0.  0.  0.
296  2.95  0.  0.  0.
297  2.96  0.  0.  0.
298  2.97  0.  0.  0.
299  2.98  0.  0.  0.
300  2.99  0.  0.  0.
301  3.00  0.  0.  0.
302  3.01  0.  0.  0.
303  3.02  0.  0.  0.
304  3.03  0.  0.  0.
305  3.04  0.  0.  0.
306  3.05  0.  0.  0.
307  3.06  0.  0.  0.
308  3.07  0.  0.  0.
309  3.08  0.  0.  0.
310  3.09  0.  0.  0.
311  3.10  0.  0.  0.
312  3.11  0.  0.  0.
313  3.12  0.  0.  0.
314  3.13  0.  0.  0.
315  3.14  0.  0.  0.
316  3.15  0.  0.  0.
317  3.16  0.  0.  0.
318  3.17  0.  0.  0.
319  3.18  0.  0.  0.
320  3.19  0.  0.  0.
321  3.20  0.  0.  0.
322  3.21  0.  0.  0.
323  3.22  0.  0.  0.
324  3.23  0.  0.  0.
325  3.24  0.  0.  0.
326  3.25  0.  0.  0.
327  3.26  0.  0.  0.
328  3.27  0.  0.  0.
329  3.28  0.  0.  0.
330  3.29  0.  0.  0.
331  3.30  0.  0.  0.
332  3.31  0.  0.  0.
333  3.32  0.  0.  0.
334  3.33  0.  0.  0.
335  3.34  0.  0.  0.
336  3.35  0.  0.  0.
337  3.36  0.  0.  0.
338  3.37  0.  0.  0.
339  3.38  0.  0.  0.
340  3.39  0.  0.  0.
341  3.40  0.  0.  0.
342  3.41  0.  0.  0.
343  3.42  0.  0.  0.
344  3.43  0.  0.  0.
345  3.44  0.  0.  0.
346  3.45  0.  0.  0.
347  3.46  0.  0.  0.
348  3.47  0.  0.  0.
349  3.48  0.  0.  0.
350  3.49  0.  0.  0.
351  3.50  0.  0.  0.
352  3.51  0.  0.  0.
353  3.52  0.  0.  0.
354  3.53  0.  0.  0.
355  3.54  0.  0.  0.
356  3.55  0.  0.  0.
357  3.56  0.  0.  0.
358  3.57  0.  0.  0.
359  3.58  0.  0.  0.
360  3.59  0.  0.  0.
361  3.60  0.  0.  0.
362  3.61  0.  0.  0.
363  3.62  0.  0.  0.
364  3.63  0.  0.  0.
365  3.64  0.  0.  0.
366  3.65  0.  0.  0.
367  3.66  0.  0.  0.
368  3.67  0.  0.  0.
369  3.68  0.  0.  0.
370  3.69  0.  0.  0.
371  3.70  0.  0.  0.
372  3.71  0.  0.  0.
373  3.72  0.  0.  0.
374  3.73  0.  0.  0.
375  3.74  0.  0.  0.
376  3.75  0.  0.  0.
377  3.76  0.  0.  0.
378  3.77  0.  0.  0.
379  3.78  0.  0.  0.
380  3.79  0.  0.  0.
381  3.80  0.  0.  0.
382  3.81  0.  0.  0.
383  3.82  0.  0.  0.
384  3.83  0.  0.  0.
385  3.84  0.  0.  0.
386  3.85  0.  0.  0.
387  3.86  0.  0.  0.
388  3.87  0.  0.  0.
389  3.88  0.  0.  0.
390  3.89  0.  0.  0.
391  3.90  0.  0.  0.
392  3.91  0.  0.  0.
393  3.92  0.  0.  0.
394  3.93  0.  0.  0.
395  3.94  0.  0.  0.
396  3.95  0.  0.  0.
397  3.96  0.  0.  0.
398  3.97  0.  0.  0.
399  3.98  0.  0.  0.
400  3.99  0.  0.  0.
401  4.00  0.  0.  0.
402  4.01  0.  0.  0.
403  4.02  0.  0.  0.
404  4.03  0.  0.  0.
405  4.04  0.  0.  0.
406  4.05  0.  0.  0.
407  4.06  0.  0.  0.
408  4.07  0.  0.  0.
409  4.08  0.  0.  0.
410  4.09  0.  0.  0.
411  4.10  0.  0.  0.
412  4.11  0.  0.  0.
413  4.12  0.  0.  0.
414  4.13  0.  0.  0.
415  4.14  0.  0.  0.
416  4.15  0.  0.  0.
417  4.16  0.  0.  0.
418  4.17  0.  0.  0.
419  4.18  0.  0.  0.
420  4.19  0.  0.  0.
421  4.20  0.  0.  0.
422  4.21  0.  0.  0.
423  4.22  0.  0.  0.
424  4.23  0.  0.  0.
425  4.24  0.  0.  0.
426  4.25  0.  0.  0.
427  4.26  0.  0.  0.
428  4.27  0.  0.  0.
429  4.28  0.  0.  0.
430  4.29  0.  0.  0.
431  4.30  0.  0.  0.
432  4.31  0.  0.  0.
433  4.32  0.  0.  0.
434  4.33  0.  0.  0.
435  4.34  0.  0.  0.
436  4.35  0.  0.  0.
437  4.36  0.  0.  0.
438  4.37  0.  0.  0.
439  4.38  0.  0.  0.
440  4.39  0.  0.  0.
441  4.40  0.  0.  0.
442  4.41  0.  0.  0.
443  4.42  0.  0.  0.
444  4.43  0.  0.  0.
445  4.44  0.  0.  0.
446  4.45  0.  0.  0.
447  4.46  0.  0.  0.
448  4.47  0.  0.  0.
449  4.48  0.  0.  0.
450  4.49  0.  0.  0.
451  4.50  0.  0.  0.
452  4.51  0.  0.  0.
453  4.52  0.  0.  0.
454  4.53  0.  0.  0.
455  4.54  0.  0.  0.
456  4.55  0.  0.  0.
457  4.56  0.  0.  0.
458  4.57  0.  0.  0.
459  4.58  0.  0.  0.
460  4.59  0.  0.  0.
461  4.60  0.  0.  0.
462  4.61  0.  0.  0.
463  4.62  0.  0.  0.
464  4.63  0.  0.  0.
465  4.64  0.  0.  0.
466  4.65  0.  0.  0.
467  4.66  0.  0.  0.
468  4.67  0.  0.  0.
469  4.68  0.  0.  0.
470  4.69  0.  0.  0.
471  4.70  0.  0.  0.
472  4.71  0.  0.  0.
473  4.72  0.  0.  0.
474  4.73  0.  0.  0.
475  4.74  0.  0.  0.
476  4.75  0.  0.  0.
477  4.76  0.  0.  0.
478  4.77  0.  0.  0.
479  4.78  0.  0.  0.
480  4.79  0.  0.  0.
481  4.80  0.  0.  0.
482  4.81  0.  0.  0.
483  4.82  0.  0.  0.
484  4.83  0.  0.  0.
485  4.84  0.  0.  0.
486  4.85  0.  0.  0.
487  4.86  0.  0.  0.
488  4.87  0.  0.  0.
489  4.88  0.  0.  0.
490  4.89  0.  0.  0.
491  4.90  0.  0.  0.
492  4.91  0.  0.  0.
493  4.92  0.  0.  0.
494  4.93  0.  0.  0.
495  4.94  0.  0.  0.
496  4.95  0.  0.  0.
497  4.96  0.  0.  0.
498  4.97  0.  0.  0.
499  4.98  0.  0.  0.
500  4.99  0.  0.  0.
501  5.00  0.  0.  0.
502  5.01  0.  0.  0.
503  5.02  0.  0.  0.
504  5.03  0.  0.  0.
505  5.04  0.  0.  0.
506  5.05  0.  0.  0.
507  5.06  0.  0.  0.
508  5.07  0.  0.  0.
509  5.08  0.  0.  0.
510  5.09  0.  0.  0.
511  5.10  0.  0.  0.
512  5.11  0.  0.  0.
513  5.12  0.  0.  0.
514  5.13  0.  0.  0.
515  5.14  0.  0.  0.
516  5.15  0.  0.  0.
517  5.16  0.  0.  0.
518  5.17  0.  0.  0.
519  5.18  0.  0.  0.
520  5.19  0.  0.  0.
521  5.20  0.  0.  0.
522  5.21  0.  0.  0.
523  5.22  0.  0.  0.
524  5.23  0.  0.  0.
525  5.24  0.  0.  0.
526  5.25  0.  0.  0.
527  5.26  0.  0.  0.
528  5.27  0.  0.  0.
529  5.28  0.  0.  0.
530  5.29  0.  0.  0.
531  5.30  0.  0.  0.
532  5.31  0.  0.  0.
533  5.32  0.  0.  0.
534  5.33  0.  0.  0.
535  5.34  0.  0.  0.
536  5.35  0.  0.  0.
537  5.36  0.  0.  0.
538  5.37  0.  0.  0.
539  5.38  0.  0.  0.
540  5.39  0.  0.  0.
541  5.40  0.  0.  0.
542  5.41  0.  0.  0.
543  5.42  0.  0.  0.
544  5.43  0.  0.  0.
545  5.44  0.  0.  0.
546  5.45  0.  0.  0.
547  5.46  0.  0.  0.
548  5.47  0.  0.  0.
549  5.48  0.  0.  0.
550  5.49  0.  0.  0.
551  5.50  0.  0.  0.
552  5.51  0.  0.  0.
553  5.52  0.  0.  0.
554  5.53  0.  0.  0.
555  5.54  0.  0.  0.
556  5.55  0.  0.  0.
557  5.56  0.  0.  0.
558  5.57  0.  0.  0.
559  5.58  0.  0.  0.
560  5.59  0.  0.  0.
561  5.60  0.  0.  0.
562  5.61  0.  0.  0.
563  5.62  0.  0.  0.
564  5.63  0.  0.  0.
565  5.64  0.  0.  0.
566  5.65  0.  0.  0.
567  5.66  0.  0.  0.
568  5.67  0.  0.  0.
569  5.68  0.  0.  0.
570  5.69  0.  0.  0.
571  5.70  0.  0.  0.
572  5.71  0.  0.  0.
573  5.72  0.  0.  0.
574  5.73  0.  0.  0.
575  5.74  0.  0.  0.
576  5.75  0.  0.  0.
577  5.76  0.  0.  0.
578  5.77  0.  0.  0.
579  5.78  0.  0.  0.
580  5.79  0.  0.  0.
581  5.80  0.  0.  0.
582  5.81  0.  0.  0.
583  5.82  0.  0.  0.
584  5.83  0.  0.  0.
585  5.84  0.  0.  0.
586  5.85  0.  0.  0.
587  5.86  0.  0.  0.
588  5.87  0.  0.  0.
589  5.88  0.  0.  0.
590  5.89  0.  0.  0.
591  5.90  0.  0.  0.
592  5.91  0.  0.  0.
593  5.92  0.  0.  0.
594  5.93  0.  0.  0.
595  5.94  0.  0.  0.
596  5.95  0.  0.  0.
597  5.96  0.  0.  0.
598  5.97  0.  0.  0.
599  5.98  0.  0.  0.
600  5.99  0.  0.  0.
1                         7.4844825401884E+00 -1.0896894904312E+00
1  0.0000000000000E+00 -4.7672491232387E-09 -1.0007000787043E-08
2  1.0000000000000E-02  3.6701382014963E-03  2.0925344311990E-04
3  2.0000000000000E-02  1.4654854179063E-02  8.4282757288019E-04
4  3.0000000000000E-02  3.2877125595865E-02  1.9179646881886E-03
5  4.0000000000000E-02  5.8208830680641E-02  3.4627449618208E-03
6  5.0000000000000E-02  9.0471134001320E-02  5.5151241215096E-03
7  6.0000000000000E-02  1.2943505113895E-01  8.1216317627482E-03
8  7.0000000000000E-02  1.7482221550540E-01  1.1335774059520E-02
9  8.0000000000000E-02  2.2630587531557E-01  1.5216194646169E-02
10  9.0000000000000E-02  2.8351215217419E-01  1.9824655686589E-02
11  1.0000000000000E-01  3.4602159466968E-01  2.5223907351253E-02
12  1.1000000000000E-01  4.1337106063609E-01  3.1475517878695E-02
13  1.2000000000000E-01  4.8505596025763E-01  3.8637737966952E-02
14  1.3000000000000E-01  5.6053288892033E-01  4.6763472360677E-02
15  1.4000000000000E-01  6.3922267369382E-01  5.5898428186942E-02
16  1.5000000000000E-01  7.2051385064784E-01  6.6079503941857E-02
17  1.6000000000000E-01  8.0376658202860E-01  7.7333475211472E-02
18  1.7000000000000E-01  8.8831701284796E-01  8.9676023464735E-02
19  1.8000000000000E-01  9.7348205593517E-01  1.0311114288816E-01
20  1.9000000000000E-01  1.0585645832672E+00  1.1763094760012E-01
21  2.0000000000000E-01  1.1428589897647E+00  1.3321588808910E-01
22  2.1000000000000E-01  1.2256570840735E+00  1.4983537179833E-01
23  2.2000000000000E-01  1.3062542495188E+00  1.6744876887846E-01
24  2.3000000000000E-01  1.3839558077809E+00  1.8600677070518E-01
25  2.4000000000000E-01  1.4580835082738E+00  2.0545305625116E-01
26  2.5000000000000E-01  1.5279820580217E+00  2.2572621023073E-01
27  2.6000000000000E-01  1.5930256003520E+00  2.4676182747850E-01
28  2.7000000000000E-01  1.6526240461909E+00  2.6849473060945E-01
29  2.8000000000000E-01  1.7062291593827E+00  2.9086122290275E-01
30  2.9000000000000E-01  1.7533402973904E+00  3.1380129575168E-01
31  3.0000000000000E-01  1.7935097110578E+00  3.3726071004373E-01
32  3.1000000000000E-01  1.8263473118377E+00  3.6119287351454E-01
33  3.2000000000000E-01  1.8515248219470E+00  3.8556044140765E-01
34  3.3000000000000E-01  1.8687792321842E+00  4.1033657553547E-01
35  3.4000000000000E-01  1.8779155034262E+00  4.3550580686271E-01
36  3.5000000000000E-01  1.8788084608694E+00  4.6106445873255E-01
37  3.6000000000000E-01  1.8714038445625E+00  4.8702060147384E-01
38  3.7000000000000E-01  1.8557184953593E+00  5.1339352395196E-01
39  3.8000000000000E-01  1.8318396716810E+00  5.4021272320289E-01
40  3.9000000000000E-01  1.7999235090155E+00  5.6751642913211E-01
41  4.0000000000000E-01  1.7601926504557E+00  5.9534969686818E-01
42  4.1000000000000E-01  1.7129330923589E+00  6.2376211423293E-01
43  4.2000000000000E-01  1.6584903039738E+00  6.5280518544361E-01
44  4.3000000000000E-01  1.5972646932455E+00  6.8252946414296E-01
45  4.4000000000000E-01  1.5297065026004E+00  7.1298151875598E-01
46  4.5000000000000E-01  1.4563102280495E+00  7.4420082065035E-01
47  4.6000000000000E-01  1.3776086621579E+00  7.7621665035631E-01
48  4.7000000000000E-01  1.2941666661505E+00  8.0904511898869E-01
49  4.8000000000000E-01  1.2065747785385E+00  8.4268640090333E-01
50  4.9000000000000E-01  1.1154427671316E+00  8.7712226950132E-01
51  5.0000000000000E-01  1.0213932281906E+00  9.1231402105003E-01
52  5.1000000000000E-01  9.2505533089953E-01  9.4820086159680E-01
53  5.2000000000000E-01  8.2705879748728E-01  9.8469881977519E-01
54  5.3000000000000E-01  7.2802819947202E-01  1.0217002338922E+00
55  5.4000000000000E-01  6.2857763895889E-01  1.0590738455585E+00
56  5.5000000000000E-01  5.2930587106217E-01  1.0966655147595E+00
57  5.6000000000000E-01  4.3079190975990E-01  1.1342995531948E+00
58  5.7000000000000E-01  3.3359114525374E-01  1.1717806544780E+00
59  5.8000000000000E-01  2.3823198664581E-01  1.2088963819710E+00
60  5.9000000000000E-01  1.4521302990006E-01  1.2454201581754E+00
61  6.0000000000000E-01  5.5000738052560E-02  1.2811146842537E+00
62  6.1000000000000E-01 -3.1972391133730E-02  1.3157357049154E+00
63  6.2000000000000E-01 -1.1530920505816E-01  1.3490360229953E+00
64  6.3000000000000E-01 -1.9464886701165E-01  1.3807696599536E+00
65  6.4000000000000E-01 -2.6966746724425E-01  1.4106960535195E+00
66  6.5000000000000E-01 -3.4007832781222E-01  1.4385841819601E+00
67  6.6000000000000E-01 -4.0563205625470E-01  1.4642165060760E+00
68  6.7000000000000E-01 -4.6611640243068E-01  1.4873926249819E+00
69  6.8000000000000E-01 -5.2135596988846E-01  1.5079325498942E+00
70  6.9000000000000E-01 -5.7121182810861E-01  1.5256795112833E+00
71  7.0000000000000E-01 -6.1558106510095E-01  1.5405022285358E+00
72  7.1000000000000E-01 -6.5439631145199E-01  1.5522965872830E+00
73  7.2000000000000E-01 -6.8762525737668E-01  1.5609866873018E+00
74  7.3000000000000E-01 -7.1527017403377E-01  1.5665252428234E+00
75  7.4000000000000E-01 -7.3736743975517E-01  1.5688933366013E+00
76  7.5000000000000E-01 -7.5398706136769E-01  1.5680995485704E+00
77  7.6000000000000E-01 -7.6523217090235E-01  1.5641784987459E+00
78  7.7000000000000E-01 -7.7123846912624E-01  1.5571888615581E+00
79  7.8000000000000E-01 -7.7217357989542E-01  1.5472109245164E+00
80  7.9000000000000E-01 -7.6823627367102E-01  1.5343437774343E+00
81  8.0000000000000E-01 -7.5965551495768E-01  1.5187022289651E+00
82  8.1000000000000E-01 -7.4668928713683E-01  1.5004135545488E+00
83  8.2000000000000E-01 -7.2962314931860E-01  1.4796141837883E+00
84  8.3000000000000E-01 -7.0876848347873E-01  1.4564464356107E+00
85  8.4000000000000E-01 -6.8446039624457E-01  1.4310554062937E+00
86  8.5000000000000E-01 -6.5705524811596E-01  1.4035861086336E+00
87  8.6000000000000E-01 -6.2692779343455E-01  1.3741809504066E+00
88  8.7000000000000E-01 -5.9446792674465E-01  1.3429776271352E+00
89  8.8000000000000E-01 -5.6007704494079E-01  1.3101074884517E+00
90  8.9000000000000E-01 -5.2416404932580E-01  1.2756944195403E+00
91  9.0000000000000E-01 -4.8714102691242E-01  1.2398542598478E+00
92  9.1000000000000E-01 -4.4941866545593E-01  1.2026947611051E+00
93  9.2000000000000E-01 -4.1140147125025E-01  1.1643160664000E+00
94  9.3000000000000E-01 -3.7348287209695E-01  1.1248116722761E+00
95  9.4000000000000E-01 -3.3604029952042E-01  1.0842698173155E+00
96  9.5000000000000E-01 -2.9943035373968E-01  1.0427752240638E+00
97  9.6000000000000E-01 -2.6398416165249E-01  1.0004111071046E+00
98  9.7000000000000E-01 -2.3000304173658E-01  9.5726134917146E-01
99  9.8000000000000E-01 -1.9775458999898E-01  9.1341273985858E-01
100  9.9000000000000E-01 -1.6746929766494E-01  8.6895716817654E-01
101  1.0000000000000E+00 -1.3933780404702E-01  8.2399366116472E-01
102  1.0100000000000E+00 -1.1350887693346E-01  7.7863016618442E-01
103  1.0200000000000E+00 -9.0088197922134E-02  7.3298498444085E-01
104  1.0300000000000E+00 -6.9138011575110E-02  6.8718777763504E-01
105  1.0400000000000E+00 -5.0677675352567E-02  6.4138008821819E-01
106  1.0500000000000E+00 -3.4685122288500E-02  5.9571533626788E-01
107  1.0600000000000E+00 -2.1099220812063E-02  5.5035828204391E-01
108  1.0700000000000E+00 -9.8229864487609E-03  5.0548397235360E-01
109  1.0800000000000E+00 -7.2756887480989E-04  4.6127622043851E-01
110  1.0900000000000E+00  6.3430942993557E-03  4.1792570239031E-01
111  1.1000000000000E+00  1.1567098183094E-02  3.7562778768845E-01
112  1.1100000000000E+00  1.5139038941656E-02  3.3458025634200E-01
113  1.1200000000000E+00  1.7264334281927E-02  2.9498108986701E-01
114  1.1300000000000E+00  1.8153630135475E-02  2.5702655706184E-01
115  1.1400000000000E+00  1.8017555063596E-02  2.2090984771624E-01
116  1.1500000000000E+00  1.7062108712618E-02  1.8682053734403E-01
117  1.1600000000000E+00  1.5484992363109E-02  1.5494519325414E-01
118  1.1700000000000E+00  1.3473223456077E-02  1.2546946979004E-01
119  1.1800000000000E+00  1.1202260488207E-02  9.8581948631487E-02
120  1.1900000000000E+00  8.8370148854865E-03  7.4480153955154E-02