Np    ONCVPSP-4.0.1  r_core=   1.25290   1.25290   1.50818   1.50818
93.0000     33.0000      230727    zatom,zion,pspd
8      11   3     4   600     0    pspcod,pspxc,lmax,lloc,mmax,r2well
5.99000000  4.00000000  0.00000000    rchrg fchrg qchrg
3     3     3     2    nproj
3     1           extension_switch
4     3     4    nprojso
0                         2.2605931904651E+01  2.4991739852054E+00 -1.1221402998290E+00
1  0.0000000000000E+00 -4.2242676689952E-08  1.4755819338630E-07 -1.7579829814096E-09
2  1.0000000000000E-02  1.4330993670072E-01 -7.2698255090654E-02  2.7674320625606E-02
3  2.0000000000000E-02  2.8563590084752E-01 -1.4369652822982E-01  5.5242268407697E-02
4  3.0000000000000E-02  4.2600820094431E-01 -2.1133714773543E-01  8.2598369168766E-02
5  4.0000000000000E-02  5.6348533995121E-01 -2.7404580141923E-01  1.0963893387710E-01
6  5.0000000000000E-02  6.9716720483808E-01 -3.3037010378161E-01  1.3626292125278E-01
7  6.0000000000000E-02  8.2620719868242E-01 -3.7901453901859E-01  1.6237276578535E-01
8  7.0000000000000E-02  9.4982301464461E-01 -4.1887075273230E-01  1.8787516184844E-01
9  8.0000000000000E-02  1.0673057933959E+00 -4.4904231279379E-01  2.1268179635466E-01
10  9.0000000000000E-02  1.1780274557446E+00 -4.6886323511020E-01  2.3671002442324E-01
11  1.0000000000000E-01  1.2814460586790E+00 -4.7790976744071E-01  2.5988348473196E-01
12  1.1000000000000E-01  1.3771090839815E+00 -4.7600513751779E-01  2.8213265348336E-01
13  1.2000000000000E-01  1.4646546320068E+00 -4.6321719368737E-01  3.0339533811529E-01
14  1.3000000000000E-01  1.5438105570851E+00 -4.3984908992850E-01  3.2361711391422E-01
15  1.4000000000000E-01  1.6143916432543E+00 -4.0642338523959E-01  3.4275170843360E-01
16  1.5000000000000E-01  1.6762949776292E+00 -3.6366013296154E-01  3.6076133998101E-01
17  1.6000000000000E-01  1.7294937317824E+00 -3.1244972203158E-01  3.7761701733295E-01
18  1.7000000000000E-01  1.7740296073406E+00 -2.5382139343587E-01  3.9329880819905E-01
19  1.8000000000000E-01  1.8100042391187E+00 -1.8890848608234E-01  4.0779608374967E-01
20  1.9000000000000E-01  1.8375698763359E+00 -1.1891156276457E-01  4.2110774572508E-01
21  2.0000000000000E-01  1.8569196789325E+00 -4.5060625769326E-02  4.3324244127400E-01
22  2.1000000000000E-01  1.8682779712232E+00  3.1422348845008E-02  4.4421876876441E-01
23  2.2000000000000E-01  1.8718907889514E+00  1.0935934976024E-01  4.5406547543702E-01
24  2.3000000000000E-01  1.8680170384936E+00  1.8764959287803E-01  4.6282164502447E-01
25  2.4000000000000E-01  1.8569205591038E+00  2.6529905586552E-01  4.7053687045251E-01
26  2.5000000000000E-01  1.8388633416492E+00  3.4144536376881E-01  4.7727140360626E-01
27  2.6000000000000E-01  1.8141001115361E+00  4.1537726525276E-01  4.8309627103172E-01
28  2.7000000000000E-01  1.7828744309995E+00  4.8654812393785E-01  4.8809334150611E-01
29  2.8000000000000E-01  1.7454164184109E+00  5.5458305249238E-01  4.9235532880603E-01
30  2.9000000000000E-01  1.7019421216680E+00  6.1927953192422E-01  4.9598571088322E-01
31  3.0000000000000E-01  1.6526545211032E+00  6.8060157785058E-01  4.9909854516467E-01
32  3.1000000000000E-01  1.5977460767624E+00  7.3866773221540E-01  5.0181815895221E-01
33  3.2000000000000E-01  1.5374026773831E+00  7.9373336586725E-01  5.0427869400698E-01
34  3.3000000000000E-01  1.4718087958849E+00  8.4616796783346E-01  5.0662348544076E-01
35  3.4000000000000E-01  1.4011536104374E+00  8.9642826479065E-01  5.0900425703921E-01
36  3.5000000000000E-01  1.3256378127393E+00  9.4502815365963E-01  5.1158011811810E-01
37  3.6000000000000E-01  1.2454807972950E+00  9.9250653688878E-01  5.1451635093003E-01
38  3.7000000000000E-01  1.1609279081653E+00  1.0393942203521E+00  5.1798298242736E-01
39  3.8000000000000E-01  1.0722574134933E+00  1.0861810656055E+00  5.2215313973924E-01
40  3.9000000000000E-01  9.7978688331545E-01  1.1332845804758E+00  5.2720119489600E-01
41  4.0000000000000E-01  8.8387866259522E-01  1.1810210849056E+00  5.3330071095988E-01
42  4.1000000000000E-01  7.8494415856892E-01  1.2295805041865E+00  5.4062220859775E-01
43  4.2000000000000E-01  6.8344669848031E-01  1.2790057220082E+00  5.4933077904050E-01
44  4.3000000000000E-01  5.7990275941688E-01  1.3291772750598E+00  5.5958357608296E-01
45  4.4000000000000E-01  4.7488142474965E-01  1.3798039942160E+00  5.7152722604950E-01
46  4.5000000000000E-01  3.6900197989837E-01  1.4304200004215E+00  5.8529520025034E-01
47  4.6000000000000E-01  2.6292962188814E-01  1.4803882527213E+00  6.0100519915786E-01
48  4.7000000000000E-01  1.5736932040313E-01  1.5289106283724E+00  6.1875660113840E-01
49  4.8000000000000E-01  5.3057930701883E-02  1.5750442977442E+00  6.3862803090657E-01
50  4.9000000000000E-01 -4.9245281222096E-02  1.6177239468561E+00  6.6067510378586E-01
51  5.0000000000000E-01 -1.4876948544955E-01  1.6557892047700E+00  6.8492840126028E-01
52  5.1000000000000E-01 -2.4474424216718E-01  1.6880164580148E+00  7.1139173113352E-01
53  5.2000000000000E-01 -3.3641225726677E-01  1.7131540854447E+00  7.4004072186965E-01
54  5.3000000000000E-01 -4.2304260235091E-01  1.7299600292325E+00  7.7082179541878E-01
55  5.4000000000000E-01 -5.0394404092399E-01  1.7372405348508E+00  8.0365155612980E-01
56  5.5000000000000E-01 -5.7847809262930E-01  1.7338888475158E+00  8.3841662536823E-01
57  5.6000000000000E-01 -6.4607146895171E-01  1.7189226460561E+00  8.7497394238207E-01
58  5.7000000000000E-01 -7.0622752680513E-01  1.6915190276483E+00  9.1315154202721E-01
59  5.8000000000000E-01 -7.5853641044492E-01  1.6510459271516E+00  9.5274980944411E-01
60  5.9000000000000E-01 -8.0268358642682E-01  1.5970889605221E+00  9.9354320096269E-01
61  6.0000000000000E-01 -8.3845651976946E-01  1.5294728194377E+00  1.0352824097140E+00
62  6.1000000000000E-01 -8.6574929067919E-01  1.4482765092761E+00  1.0776969439611E+00
63  6.2000000000000E-01 -8.8456500852293E-01  1.3538419095495E+00  1.1204980763451E+00
64  6.3000000000000E-01 -8.9501594136543E-01  1.2467753387024E+00  1.1633821133665E+00
65  6.4000000000000E-01 -8.9732134335995E-01  1.1279420172629E+00  1.2060339267758E+00
66  6.5000000000000E-01 -8.9180302658579E-01  9.9845353787105E-01  1.2481306823525E+00
67  6.6000000000000E-01 -8.7887878654349E-01  8.5964866084324E-01  1.2893456970215E+00
68  6.7000000000000E-01 -8.5905384951367E-01  7.1306795302847E-01  1.3293523525321E+00
69  6.8000000000000E-01 -8.3291056354673E-01  5.6042296952642E-01  1.3678279930909E+00
70  6.9000000000000E-01 -8.0109660136928E-01  4.0356083678226E-01  1.4044577354401E+00
71  7.0000000000000E-01 -7.6431198159970E-01  2.4442522683110E-01  1.4389381228669E+00
72  7.1000000000000E-01 -7.2329524328017E-01  8.5014812193959E-02  1.4709805594275E+00
73  7.2000000000000E-01 -6.7880912709543E-01 -7.2659643660918E-02  1.5003144671209E+00
74  7.3000000000000E-01 -6.3162612434064E-01 -2.2661837591550E-01  1.5266901166485E+00
75  7.4000000000000E-01 -5.8251425165457E-01 -3.7495471061336E-01  1.5498810914857E+00
76  7.5000000000000E-01 -5.3222339602558E-01 -5.1587502464041E-01  1.5696863549866E+00
77  7.6000000000000E-01 -4.8147255122021E-01 -6.4773551501154E-01  1.5859319008128E+00
78  7.7000000000000E-01 -4.3093823449759E-01 -7.6907482621907E-01  1.5984719777800E+00
79  7.8000000000000E-01 -3.8124433243713E-01 -8.7864171859526E-01  1.6071898909089E+00
80  7.9000000000000E-01 -3.3295357834552E-01 -9.7541711710679E-01  1.6119983906985E+00
81  8.0000000000000E-01 -2.8656081260111E-01 -1.0586300534445E+00  1.6128396720863E+00
82  8.1000000000000E-01 -2.4248812314477E-01 -1.1277671989496E+00  1.6096850129256E+00
83  8.2000000000000E-01 -2.0108190789378E-01 -1.1825758758497E+00  1.6025340888346E+00
84  8.3000000000000E-01 -1.6261184589548E-01 -1.2230606234566E+00  1.5914140067449E+00
85  8.4000000000000E-01 -1.2727171123437E-01 -1.2494735785795E+00  1.5763781032527E+00
86  8.5000000000000E-01 -9.5181914636712E-02 -1.2622990999525E+00  1.5575045558569E+00
87  8.6000000000000E-01 -6.6393613776115E-02 -1.2622332200370E+00  1.5348948553406E+00
88  8.7000000000000E-01 -4.0894195659489E-02 -1.2501586399027E+00  1.5086721859530E+00
89  8.8000000000000E-01 -1.8613904107563E-02 -1.2271160905784E+00  1.4789797567958E+00
90  8.9000000000000E-01  5.6663709274038E-04 -1.1942729647520E+00  1.4459791230844E+00
91  9.0000000000000E-01  1.6808268910057E-02 -1.1528901744325E+00  1.4098485299684E+00
92  9.1000000000000E-01  3.0304778918987E-02 -1.1042882125175E+00  1.3707813046468E+00
93  9.2000000000000E-01  4.1274287005555E-02 -1.0498133895036E+00  1.3289843149138E+00
94  9.3000000000000E-01  4.9950791327321E-02 -9.9080518204790E-01  1.2846765043788E+00
95  9.4000000000000E-01  5.6576113467671E-02 -9.2856556976855E-01  1.2380875067762E+00
96  9.5000000000000E-01  6.1392457994747E-02 -8.6433115330702E-01  1.1894563343950E+00
97  9.6000000000000E-01  6.4635772644468E-02 -7.9924874350651E-01  1.1390301290623E+00
98  9.7000000000000E-01  6.6530062223607E-02 -7.3435499232574E-01  1.0870629586560E+00
99  9.8000000000000E-01  6.7282773211395E-02 -6.7056050459206E-01  1.0338146380827E+00
100  9.9000000000000E-01  6.7081328122313E-02 -6.0863872996003E-01  9.7954955130683E-01
101  1.0000000000000E+00  6.6090850068077E-02 -5.4921979021856E-01  9.2453545053874E-01
102  1.0100000000000E+00  6.4453079652449E-02 -4.9278925198571E-01  8.6904221021011E-01
103  1.0200000000000E+00  6.2286449175092E-02 -4.3969171178895E-01  8.1334051695746E-01
104  1.0300000000000E+00  5.9687243834175E-02 -3.9013892223683E-01  7.5770048246636E-01
105  1.0400000000000E+00  5.6731746650137E-02 -3.4422205623009E-01  7.0239017360643E-01
106  1.0500000000000E+00  5.3479233355142E-02 -3.0192758177024E-01  6.4767406366115E-01
107  1.0600000000000E+00  4.9975655570010E-02 -2.6315610353210E-01  5.9381141935440E-01
108  1.0700000000000E+00  4.6257824857446E-02 -2.2774341805783E-01  5.4105465050084E-01
109  1.0800000000000E+00  4.2357886151222E-02 -1.9548292572149E-01  4.8964766211124E-01
110  1.0900000000000E+00  3.8307845925873E-02 -1.6614844266743E-01  4.3982426217444E-01
111  1.1000000000000E+00  3.4143897116656E-02 -1.3951635601647E-01  3.9180669174978E-01
112  1.1100000000000E+00  2.9910258214170E-02 -1.1538596290919E-01  3.4580435682592E-01
113  1.1200000000000E+00  2.5662216605495E-02 -9.3596723447541E-02  3.0201285321604E-01
114  1.1300000000000E+00  2.1468034746275E-02 -7.4041035148371E-02  2.6061338596316E-01
115  1.1400000000000E+00  1.7409340488755E-02 -5.6670996863162E-02  2.2177269284620E-01
116  1.1500000000000E+00  1.3579578248436E-02 -4.1497468131218E-02  1.8564358706910E-01
117  1.1600000000000E+00  1.0080044049195E-02 -2.8579540381977E-02  1.5236623661313E-01
118  1.1700000000000E+00  7.0129895763734E-03 -1.8002392551250E-02  1.2207031637062E-01
119  1.1800000000000E+00  4.4709846123329E-03 -9.8405901957828E-03  9.4877999108460E-02
120  1.1900000000000E+00  2.5218206161588E-03 -4.1041388775854E-03  7.0907923301340E-02
121  1.2000000000000E+00  1.1342058003862E-03 -5.0303820518602E-04  5.0238816292500E-02
122  1.2100000000000E+00  2.4730458397034E-04  1.3641616032845E-03  3.2983788542587E-02
123  1.2200000000000E+00 -1.8588894989115E-04  1.8536085562666E-03  1.9299088563750E-02
124  1.2300000000000E+00 -2.6820814280758E-04  1.4312480945224E-03  9.2695811020483E-03
125  1.2400000000000E+00 -1.4611386448834E-04  6.2711739440147E-04  2.8967370548852E-03
126  1.2500000000000E+00 -1.4474383166991E-05  5.4746509007023E-05  1.9097329668534E-04
127  1.2600000000000E+00  4.8045980018727E-07 -1.7455305891890E-06 -5.3394082394171E-06
128  1.2700000000000E+00  1.3065294615638E-07 -5.2029785036638E-07 -2.0401832254920E-06
129  1.28  0.  0.  0.
130  1.29  0.  0.  0.
131  1.30  0.  0.  0.
132  1.31  0.  0.  0.
133  1.32  0.  0.  0.
134  1.33  0.  0.  0.
135  1.34  0.  0.  0.
136  1.35  0.  0.  0.
137  1.36  0.  0.  0.
138  1.37  0.  0.  0.
139  1.38  0.  0.  0.
140  1.39  0.  0.  0.
141  1.40  0.  0.  0.
142  1.41  0.  0.  0.
143  1.42  0.  0.  0.
144  1.43  0.  0.  0.
145  1.44  0.  0.  0.
146  1.45  0.  0.  0.
147  1.46  0.  0.  0.
148  1.47  0.  0.  0.
149  1.48  0.  0.  0.
150  1.49  0.  0.  0.
151  1.50  0.  0.  0.
152  1.51  0.  0.  0.
153  1.52  0.  0.  0.
154  1.53  0.  0.  0.
155  1.54  0.  0.  0.
156  1.55  0.  0.  0.
157  1.56  0.  0.  0.
158  1.57  0.  0.  0.
159  1.58  0.  0.  0.
160  1.59  0.  0.  0.
161  1.60  0.  0.  0.
162  1.61  0.  0.  0.
163  1.62  0.  0.  0.
164  1.63  0.  0.  0.
165  1.64  0.  0.  0.
166  1.65  0.  0.  0.
167  1.66  0.  0.  0.
168  1.67  0.  0.  0.
169  1.68  0.  0.  0.
170  1.69  0.  0.  0.
171  1.70  0.  0.  0.
172  1.71  0.  0.  0.
173  1.72  0.  0.  0.
174  1.73  0.  0.  0.
175  1.74  0.  0.  0.
176  1.75  0.  0.  0.
177  1.76  0.  0.  0.
178  1.77  0.  0.  0.
179  1.78  0.  0.  0.
180  1.79  0.  0.  0.
181  1.80  0.  0.  0.
182  1.81  0.  0.  0.
183  1.82  0.  0.  0.
184  1.83  0.  0.  0.
185  1.84  0.  0.  0.
186  1.85  0.  0.  0.
187  1.86  0.  0.  0.
188  1.87  0.  0.  0.
189  1.88  0.  0.  0.
190  1.89  0.  0.  0.
191  1.90  0.  0.  0.
192  1.91  0.  0.  0.
193  1.92  0.  0.  0.
194  1.93  0.  0.  0.
195  1.94  0.  0.  0.
196  1.95  0.  0.  0.
197  1.96  0.  0.  0.
198  1.97  0.  0.  0.
199  1.98  0.  0.  0.
200  1.99  0.  0.  0.
201  2.00  0.  0.  0.
202  2.01  0.  0.  0.
203  2.02  0.  0.  0.
204  2.03  0.  0.  0.
205  2.04  0.  0.  0.
206  2.05  0.  0.  0.
207  2.06  0.  0.  0.
208  2.07  0.  0.  0.
209  2.08  0.  0.  0.
210  2.09  0.  0.  0.
211  2.10  0.  0.  0.
212  2.11  0.  0.  0.
213  2.12  0.  0.  0.
214  2.13  0.  0.  0.
215  2.14  0.  0.  0.
216  2.15  0.  0.  0.
217  2.16  0.  0.  0.
218  2.17  0.  0.  0.
219  2.18  0.  0.  0.
220  2.19  0.  0.  0.
221  2.20  0.  0.  0.
222  2.21  0.  0.  0.
223  2.22  0.  0.  0.
224  2.23  0.  0.  0.
225  2.24  0.  0.  0.
226  2.25  0.  0.  0.
227  2.26  0.  0.  0.
228  2.27  0.  0.  0.
229  2.28  0.  0.  0.
230  2.29  0.  0.  0.
231  2.30  0.  0.  0.
232  2.31  0.  0.  0.
233  2.32  0.  0.  0.
234  2.33  0.  0.  0.
235  2.34  0.  0.  0.
236  2.35  0.  0.  0.
237  2.36  0.  0.  0.
238  2.37  0.  0.  0.
239  2.38  0.  0.  0.
240  2.39  0.  0.  0.
241  2.40  0.  0.  0.
242  2.41  0.  0.  0.
243  2.42  0.  0.  0.
244  2.43  0.  0.  0.
245  2.44  0.  0.  0.
246  2.45  0.  0.  0.
247  2.46  0.  0.  0.
248  2.47  0.  0.  0.
249  2.48  0.  0.  0.
250  2.49  0.  0.  0.
251  2.50  0.  0.  0.
252  2.51  0.  0.  0.
253  2.52  0.  0.  0.
254  2.53  0.  0.  0.
255  2.54  0.  0.  0.
256  2.55  0.  0.  0.
257  2.56  0.  0.  0.
258  2.57  0.  0.  0.
259  2.58  0.  0.  0.
260  2.59  0.  0.  0.
261  2.60  0.  0.  0.
262  2.61  0.  0.  0.
263  2.62  0.  0.  0.
264  2.63  0.  0.  0.
265  2.64  0.  0.  0.
266  2.65  0.  0.  0.
267  2.66  0.  0.  0.
268  2.67  0.  0.  0.
269  2.68  0.  0.  0.
270  2.69  0.  0.  0.
271  2.70  0.  0.  0.
272  2.71  0.  0.  0.
273  2.72  0.  0.  0.
274  2.73  0.  0.  0.
275  2.74  0.  0.  0.
276  2.75  0.  0.  0.
277  2.76  0.  0.  0.
278  2.77  0.  0.  0.
279  2.78  0.  0.  0.
280  2.79  0.  0.  0.
281  2.80  0.  0.  0.
282  2.81  0.  0.  0.
283  2.82  0.  0.  0.
284  2.83  0.  0.  0.
285  2.84  0.  0.  0.
286  2.85  0.  0.  0.
287  2.86  0.  0.  0.
288  2.87  0.  0.  0.
289  2.88  0.  0.  0.
290  2.89  0.  0.  0.
291  2.90  0.  0.  0.
292  2.91  0.  0.  0.
293  2.92  0.  0.  0.
294  2.93  0.  0.  0.
295  2.94  0.  0.  0.
296  2.95  0.  0.  0.
297  2.96  0.  0.  0.
298  2.97  0.  0.  0.
299  2.98  0.  0.  0.
300  2.99  0.  0.  0.
301  3.00  0.  0.  0.
302  3.01  0.  0.  0.
303  3.02  0.  0.  0.
304  3.03  0.  0.  0.
305  3.04  0.  0.  0.
306  3.05  0.  0.  0.
307  3.06  0.  0.  0.
308  3.07  0.  0.  0.
309  3.08  0.  0.  0.
310  3.09  0.  0.  0.
311  3.10  0.  0.  0.
312  3.11  0.  0.  0.
313  3.12  0.  0.  0.
314  3.13  0.  0.  0.
315  3.14  0.  0.  0.
316  3.15  0.  0.  0.
317  3.16  0.  0.  0.
318  3.17  0.  0.  0.
319  3.18  0.  0.  0.
320  3.19  0.  0.  0.
321  3.20  0.  0.  0.
322  3.21  0.  0.  0.
323  3.22  0.  0.  0.
324  3.23  0.  0.  0.
325  3.24  0.  0.  0.
326  3.25  0.  0.  0.
327  3.26  0.  0.  0.
328  3.27  0.  0.  0.
329  3.28  0.  0.  0.
330  3.29  0.  0.  0.
331  3.30  0.  0.  0.
332  3.31  0.  0.  0.
333  3.32  0.  0.  0.
334  3.33  0.  0.  0.
335  3.34  0.  0.  0.
336  3.35  0.  0.  0.
337  3.36  0.  0.  0.
338  3.37  0.  0.  0.
339  3.38  0.  0.  0.
340  3.39  0.  0.  0.
341  3.40  0.  0.  0.
342  3.41  0.  0.  0.
343  3.42  0.  0.  0.
344  3.43  0.  0.  0.
345  3.44  0.  0.  0.
346  3.45  0.  0.  0.
347  3.46  0.  0.  0.
348  3.47  0.  0.  0.
349  3.48  0.  0.  0.
350  3.49  0.  0.  0.
351  3.50  0.  0.  0.
352  3.51  0.  0.  0.
353  3.52  0.  0.  0.
354  3.53  0.  0.  0.
355  3.54  0.  0.  0.
356  3.55  0.  0.  0.
357  3.56  0.  0.  0.
358  3.57  0.  0.  0.
359  3.58  0.  0.  0.
360  3.59  0.  0.  0.
361  3.60  0.  0.  0.
362  3.61  0.  0.  0.
363  3.62  0.  0.  0.
364  3.63  0.  0.  0.
365  3.64  0.  0.  0.
366  3.65  0.  0.  0.
367  3.66  0.  0.  0.
368  3.67  0.  0.  0.
369  3.68  0.  0.  0.
370  3.69  0.  0.  0.
371  3.70  0.  0.  0.
372  3.71  0.  0.  0.
373  3.72  0.  0.  0.
374  3.73  0.  0.  0.
375  3.74  0.  0.  0.
376  3.75  0.  0.  0.
377  3.76  0.  0.  0.
378  3.77  0.  0.  0.
379  3.78  0.  0.  0.
380  3.79  0.  0.  0.
381  3.80  0.  0.  0.
382  3.81  0.  0.  0.
383  3.82  0.  0.  0.
384  3.83  0.  0.  0.
385  3.84  0.  0.  0.
386  3.85  0.  0.  0.
387  3.86  0.  0.  0.
388  3.87  0.  0.  0.
389  3.88  0.  0.  0.
390  3.89  0.  0.  0.
391  3.90  0.  0.  0.
392  3.91  0.  0.  0.
393  3.92  0.  0.  0.
394  3.93  0.  0.  0.
395  3.94  0.  0.  0.
396  3.95  0.  0.  0.
397  3.96  0.  0.  0.
398  3.97  0.  0.  0.
399  3.98  0.  0.  0.
400  3.99  0.  0.  0.
401  4.00  0.  0.  0.
402  4.01  0.  0.  0.
403  4.02  0.  0.  0.
404  4.03  0.  0.  0.
405  4.04  0.  0.  0.
406  4.05  0.  0.  0.
407  4.06  0.  0.  0.
408  4.07  0.  0.  0.
409  4.08  0.  0.  0.
410  4.09  0.  0.  0.
411  4.10  0.  0.  0.
412  4.11  0.  0.  0.
413  4.12  0.  0.  0.
414  4.13  0.  0.  0.
415  4.14  0.  0.  0.
416  4.15  0.  0.  0.
417  4.16  0.  0.  0.
418  4.17  0.  0.  0.
419  4.18  0.  0.  0.
420  4.19  0.  0.  0.
421  4.20  0.  0.  0.
422  4.21  0.  0.  0.
423  4.22  0.  0.  0.
424  4.23  0.  0.  0.
425  4.24  0.  0.  0.
426  4.25  0.  0.  0.
427  4.26  0.  0.  0.
428  4.27  0.  0.  0.
429  4.28  0.  0.  0.
430  4.29  0.  0.  0.
431  4.30  0.  0.  0.
432  4.31  0.  0.  0.
433  4.32  0.  0.  0.
434  4.33  0.  0.  0.
435  4.34  0.  0.  0.
436  4.35  0.  0.  0.
437  4.36  0.  0.  0.
438  4.37  0.  0.  0.
439  4.38  0.  0.  0.
440  4.39  0.  0.  0.
441  4.40  0.  0.  0.
442  4.41  0.  0.  0.
443  4.42  0.  0.  0.
444  4.43  0.  0.  0.
445  4.44  0.  0.  0.
446  4.45  0.  0.  0.
447  4.46  0.  0.  0.
448  4.47  0.  0.  0.
449  4.48  0.  0.  0.
450  4.49  0.  0.  0.
451  4.50  0.  0.  0.
452  4.51  0.  0.  0.
453  4.52  0.  0.  0.
454  4.53  0.  0.  0.
455  4.54  0.  0.  0.
456  4.55  0.  0.  0.
457  4.56  0.  0.  0.
458  4.57  0.  0.  0.
459  4.58  0.  0.  0.
460  4.59  0.  0.  0.
461  4.60  0.  0.  0.
462  4.61  0.  0.  0.
463  4.62  0.  0.  0.
464  4.63  0.  0.  0.
465  4.64  0.  0.  0.
466  4.65  0.  0.  0.
467  4.66  0.  0.  0.
468  4.67  0.  0.  0.
469  4.68  0.  0.  0.
470  4.69  0.  0.  0.
471  4.70  0.  0.  0.
472  4.71  0.  0.  0.
473  4.72  0.  0.  0.
474  4.73  0.  0.  0.
475  4.74  0.  0.  0.
476  4.75  0.  0.  0.
477  4.76  0.  0.  0.
478  4.77  0.  0.  0.
479  4.78  0.  0.  0.
480  4.79  0.  0.  0.
481  4.80  0.  0.  0.
482  4.81  0.  0.  0.
483  4.82  0.  0.  0.
484  4.83  0.  0.  0.
485  4.84  0.  0.  0.
486  4.85  0.  0.  0.
487  4.86  0.  0.  0.
488  4.87  0.  0.  0.
489  4.88  0.  0.  0.
490  4.89  0.  0.  0.
491  4.90  0.  0.  0.
492  4.91  0.  0.  0.
493  4.92  0.  0.  0.
494  4.93  0.  0.  0.
495  4.94  0.  0.  0.
496  4.95  0.  0.  0.
497  4.96  0.  0.  0.
498  4.97  0.  0.  0.
499  4.98  0.  0.  0.
500  4.99  0.  0.  0.
501  5.00  0.  0.  0.
502  5.01  0.  0.  0.
503  5.02  0.  0.  0.
504  5.03  0.  0.  0.
505  5.04  0.  0.  0.
506  5.05  0.  0.  0.
507  5.06  0.  0.  0.
508  5.07  0.  0.  0.
509  5.08  0.  0.  0.
510  5.09  0.  0.  0.
511  5.10  0.  0.  0.
512  5.11  0.  0.  0.
513  5.12  0.  0.  0.
514  5.13  0.  0.  0.
515  5.14  0.  0.  0.
516  5.15  0.  0.  0.
517  5.16  0.  0.  0.
518  5.17  0.  0.  0.
519  5.18  0.  0.  0.
520  5.19  0.  0.  0.
521  5.20  0.  0.  0.
522  5.21  0.  0.  0.
523  5.22  0.  0.  0.
524  5.23  0.  0.  0.
525  5.24  0.  0.  0.
526  5.25  0.  0.  0.
527  5.26  0.  0.  0.
528  5.27  0.  0.  0.
529  5.28  0.  0.  0.
530  5.29  0.  0.  0.
531  5.30  0.  0.  0.
532  5.31  0.  0.  0.
533  5.32  0.  0.  0.
534  5.33  0.  0.  0.
535  5.34  0.  0.  0.
536  5.35  0.  0.  0.
537  5.36  0.  0.  0.
538  5.37  0.  0.  0.
539  5.38  0.  0.  0.
540  5.39  0.  0.  0.
541  5.40  0.  0.  0.
542  5.41  0.  0.  0.
543  5.42  0.  0.  0.
544  5.43  0.  0.  0.
545  5.44  0.  0.  0.
546  5.45  0.  0.  0.
547  5.46  0.  0.  0.
548  5.47  0.  0.  0.
549  5.48  0.  0.  0.
550  5.49  0.  0.  0.
551  5.50  0.  0.  0.
552  5.51  0.  0.  0.
553  5.52  0.  0.  0.
554  5.53  0.  0.  0.
555  5.54  0.  0.  0.
556  5.55  0.  0.  0.
557  5.56  0.  0.  0.
558  5.57  0.  0.  0.
559  5.58  0.  0.  0.
560  5.59  0.  0.  0.
561  5.60  0.  0.  0.
562  5.61  0.  0.  0.
563  5.62  0.  0.  0.
564  5.63  0.  0.  0.
565  5.64  0.  0.  0.
566  5.65  0.  0.  0.
567  5.66  0.  0.  0.
568  5.67  0.  0.  0.
569  5.68  0.  0.  0.
570  5.69  0.  0.  0.
571  5.70  0.  0.  0.
572  5.71  0.  0.  0.
573  5.72  0.  0.  0.
574  5.73  0.  0.  0.
575  5.74  0.  0.  0.
576  5.75  0.  0.  0.
577  5.76  0.  0.  0.
578  5.77  0.  0.  0.
579  5.78  0.  0.  0.
580  5.79  0.  0.  0.
581  5.80  0.  0.  0.
582  5.81  0.  0.  0.
583  5.82  0.  0.  0.
584  5.83  0.  0.  0.
585  5.84  0.  0.  0.
586  5.85  0.  0.  0.
587  5.86  0.  0.  0.
588  5.87  0.  0.  0.
589  5.88  0.  0.  0.
590  5.89  0.  0.  0.
591  5.90  0.  0.  0.
592  5.91  0.  0.  0.
593  5.92  0.  0.  0.
594  5.93  0.  0.  0.
595  5.94  0.  0.  0.
596  5.95  0.  0.  0.
597  5.96  0.  0.  0.
598  5.97  0.  0.  0.
599  5.98  0.  0.  0.
600  5.99  0.  0.  0.
1                         7.1670795918188E+00 -1.1467476492025E+00  5.0139972326444E-02
1  0.0000000000000E+00 -4.8051542189675E-09 -8.8838525459656E-09  2.5808967185625E-09
2  1.0000000000000E-02  3.7171050777616E-03  2.6762726583971E-04 -3.6633517393918E-03
3  2.0000000000000E-02  1.4842062245166E-02  1.0752287197116E-03 -1.4604615452331E-02
4  3.0000000000000E-02  3.3295875845809E-02  2.4367907318341E-03 -3.2677796426186E-02
5  4.0000000000000E-02  5.8947151951775E-02  4.3750545504310E-03 -5.7640839913999E-02
6  5.0000000000000E-02  9.1612509377928E-02  6.9206829134800E-03 -8.9157548647754E-02
7  6.0000000000000E-02  1.3105718003080E-01  1.0111133929891E-02 -1.2680029190192E-01
8  7.0000000000000E-02  1.7699582213871E-01  1.3989281232600E-02 -1.7005352799996E-01
9  8.0000000000000E-02  2.2909357471479E-01  1.8601828289914E-02 -2.1831816473743E-01
10  9.0000000000000E-02  2.8696738505862E-01  2.3997572050376E-02 -2.7091678222667E-01
11  1.0000000000000E-01  3.5018764300034E-01  3.0225576542924E-02 -3.2709973979796E-01
12  1.1000000000000E-01  4.1828015578408E-01  3.7333320469277E-02 -3.8605218258939E-01
13  1.2000000000000E-01  4.9072849588307E-01  4.5364884086472E-02 -4.4690195422347E-01
14  1.3000000000000E-01  5.6697675060753E-01  5.4359239729638E-02 -5.0872840953694E-01
15  1.4000000000000E-01  6.4643269714427E-01  6.4348707186487E-02 -5.7057210588043E-01
16  1.5000000000000E-01  7.2847141975138E-01  7.5357629893400E-02 -6.3144533334940E-01
17  1.6000000000000E-01  8.1243937738397E-01  8.7401320736400E-02 -6.9034342389140E-01
18  1.7000000000000E-01  8.9765892026476E-01  1.0048531732986E-01 -7.4625675711864E-01
19  1.8000000000000E-01  9.8343324310429E-01  1.1460497629054E-01 -7.9818335750486E-01
20  1.9000000000000E-01  1.0690517511323E+00  1.2974542455288E-01 -8.4514195420602E-01
21  2.0000000000000E-01  1.1537958031686E+00  1.4588187355039E-01 -8.8618535181779E-01
22  2.1000000000000E-01  1.2369447840073E+00  1.6298028951221E-01 -9.2041393881010E-01
23  2.2000000000000E-01  1.3177824467945E+00  1.8099840060388E-01 -9.4698914099480E-01
24  2.3000000000000E-01  1.3956034552221E+00  1.9988700958972E-01 -9.6514661100978E-01
25  2.4000000000000E-01  1.4697200456161E+00  2.1959156951222E-01 -9.7420893220139E-01
26  2.5000000000000E-01  1.5394687206991E+00  2.4005396995115E-01 -9.7359760714515E-01
27  2.6000000000000E-01  1.6042168802769E+00  2.6121447308324E-01 -9.6284409793963E-01
28  2.7000000000000E-01  1.6633692895881E+00  2.8301373230851E-01 -9.4159968779029E-01
29  2.8000000000000E-01  1.7163742837841E+00  3.0539482188012E-01 -9.0964394157332E-01
30  2.9000000000000E-01  1.7627296071174E+00  3.2830520394474E-01 -8.6689155717320E-01
31  3.0000000000000E-01  1.8019877879861E+00  3.5169855977157E-01 -8.1339741938404E-01
32  3.1000000000000E-01  1.8337609560304E+00  3.7553641474729E-01 -7.4935969384855E-01
33  3.2000000000000E-01  1.8577250149256E+00  3.9978949189066E-01 -6.7512082947948E-01
34  3.3000000000000E-01  1.8736230942431E+00  4.2443873606673E-01 -5.9116637350887E-01
35  3.4000000000000E-01  1.8812682155448E+00  4.4947596055538E-01 -4.9812154301410E-01
36  3.5000000000000E-01  1.8805451214647E+00  4.7490407888404E-01 -3.9674553960277E-01
37  3.6000000000000E-01  1.8714112316034E+00  5.0073689753853E-01 -2.8792363891814E-01
38  3.7000000000000E-01  1.8538967052253E+00  5.2699845893942E-01 -1.7265713265142E-01
39  3.8000000000000E-01  1.8281036076108E+00  5.5372193849294E-01 -5.2051246673683E-02
40  3.9000000000000E-01  1.7942041940297E+00  5.8094811414722E-01  7.2698796471915E-02
41  4.0000000000000E-01  1.7524383422270E+00  6.0872344124685E-01  2.0032336033352E-01
42  4.1000000000000E-01  1.7031101805967E+00  6.3709777912006E-01  3.2949537368578E-01
43  4.2000000000000E-01  1.6465839744301E+00  6.6612182831040E-01  4.5884842338297E-01
44  4.3000000000000E-01  1.5832793463603E+00  6.9584434826343E-01  5.8699565022161E-01
45  4.4000000000000E-01  1.5136659190131E+00  7.2630923422804E-01  7.1254911561558E-01
46  4.5000000000000E-01  1.4382574776044E+00  7.5755253881618E-01  8.3413929265275E-01
47  4.6000000000000E-01  1.3576057575419E+00  7.8959952783479E-01  9.5043432862779E-01
48  4.7000000000000E-01  1.2722939668087E+00  8.2246186148602E-01  1.0601587277322E+00
49  4.8000000000000E-01  1.1829301549164E+00  8.5613499073438E-01  1.1621111123145E+00
50  4.9000000000000E-01  1.0901405394943E+00  8.9059585455617E-01  1.2551807388644E+00
51  5.0000000000000E-01  9.9456289816628E-01  9.2580095699800E-01  1.3383624702655E+00
52  5.1000000000000E-01  8.9684012740118E-01  9.6168489364537E-01  1.4107699383280E+00
53  5.2000000000000E-01  7.9761406169775E-01  9.9815938548752E-01  1.4716466693818E+00
54  5.3000000000000E-01  6.9751963607066E-01  1.0351128645852E+00  1.5203749898250E+00
55  5.4000000000000E-01  5.9717946266197E-01  1.0724106407952E+00  1.5564825768643E+00
56  5.5000000000000E-01  4.9719887880970E-01  1.1098956625214E+00  1.5796465710252E+00
57  5.6000000000000E-01  3.9816150948350E-01  1.1473898675406E+00  1.5896952200079E+00
58  5.7000000000000E-01  3.0062537209931E-01  1.1846961028908E+00  1.5866070767495E+00
59  5.8000000000000E-01  2.0511953681349E-01  1.2216005761547E+00  1.5705078267177E+00
60  5.9000000000000E-01  1.1214134093140E-01  1.2578757847197E+00  1.5416648691508E+00
61  6.0000000000000E-01  2.2154142486732E-02  1.2932838552553E+00  1.5004798228582E+00
62  6.1000000000000E-01 -6.4414414235069E-02  1.3275802131752E+00  1.4474791681333E+00
63  6.2000000000000E-01 -1.4717365908165E-01  1.3605174916476E+00  1.3833032712326E+00
64  6.3000000000000E-01 -2.2577072884261E-01  1.3918495821211E+00  1.3086940658936E+00
65  6.4000000000000E-01 -2.9989102546371E-01  1.4213357236049E+00  1.2244816868017E+00
66  6.5000000000000E-01 -3.6925835675550E-01  1.4487445262577E+00  1.1315703623391E+00
67  6.6000000000000E-01 -4.3363481835785E-01  1.4738578262659E+00  1.0309238781356E+00
68  6.7000000000000E-01 -4.9282047496521E-01  1.4964742735262E+00  9.2355091891478E-01
69  6.8000000000000E-01 -5.4665289572476E-01  1.5164125611533E+00  8.1049058416870E-01
70  6.9000000000000E-01 -5.9500659346337E-01  1.5335142161165E+00  6.9279835379569E-01
71  7.0000000000000E-01 -6.3779241023218E-01  1.5476458830490E+00  5.7153275371911E-01
72  7.1000000000000E-01 -6.7495688289666E-01  1.5587010481005E+00  4.4774293959334E-01
73  7.2000000000000E-01 -7.0648161252498E-01  1.5666011661551E+00  3.2245738006533E-01
74  7.3000000000000E-01 -7.3238265055817E-01  1.5712961723060E+00  1.9667378092294E-01
75  7.4000000000000E-01 -7.5270990363862E-01  1.5727643766186E+00  7.1350349120447E-02
76  7.5000000000000E-01 -7.6754654799430E-01  1.5710117593497E+00 -5.2601547512870E-02
77  7.6000000000000E-01 -7.7700843389633E-01  1.5660707013455E+00 -1.7432331173424E-01
78  7.7000000000000E-01 -7.8124345137568E-01  1.5579982007580E+00 -2.9301366718311E-01
79  7.8000000000000E-01 -7.8043082051817E-01  1.5468736419623E+00 -4.0793189288631E-01
80  7.9000000000000E-01 -7.7478026362635E-01  1.5327961951494E+00 -5.1839984082488E-01
81  8.0000000000000E-01 -7.6453101264529E-01  1.5158819351000E+00 -6.2380286369030E-01
82  8.1000000000000E-01 -7.4995060373195E-01  1.4962607747732E+00 -7.2358980223567E-01
83  8.2000000000000E-01 -7.3133341185044E-01  1.4740733133376E+00 -8.1727219733937E-01
84  8.3000000000000E-01 -7.0899888185695E-01  1.4494676989851E+00 -9.0442290069644E-01
85  8.4000000000000E-01 -6.8328941866131E-01  1.4225966042641E+00 -9.8467425983189E-01
86  8.5000000000000E-01 -6.5456790758488E-01  1.3936144058288E+00 -1.0577160480350E+00
87  8.6000000000000E-01 -6.2321484675138E-01  1.3626746516009E+00 -1.1232932982205E+00
88  8.7000000000000E-01 -5.8962508593723E-01  1.3299278866679E+00 -1.1812041822369E+00
89  8.8000000000000E-01 -5.5420418037853E-01  1.2955198951718E+00 -1.2312980545735E+00
90  8.9000000000000E-01 -5.1736438312575E-01  1.2595903994452E+00 -1.2734737527493E+00
91  9.0000000000000E-01 -4.7952031514007E-01  1.2222722402531E+00 -1.3076782170355E+00