Lv    ONCVPSP-4.0.1  r_core=   1.40419   1.37099   1.32266   1.50870
116.0000     24.0000      230613    zatom,zion,pspd
8      11   3     4   600     0    pspcod,pspxc,lmax,lloc,mmax,r2well
5.99000000  5.00000000  0.00000000    rchrg fchrg qchrg
2     3     3     2    nproj
3     1           extension_switch
4     3     2    nprojso
0                         2.0088003652538E+01  2.6700434338078E+00
1  0.0000000000000E+00  1.3747475935411E-09 -4.1056229110881E-09
2  1.0000000000000E-02  5.7523304020219E-02 -2.5487801646106E-03
3  2.0000000000000E-02  1.1505065124707E-01 -5.2664877967923E-03
4  3.0000000000000E-02  1.7258465669334E-01 -8.3182907327643E-03
5  4.0000000000000E-02  2.3012510192802E-01 -1.1861900506299E-02
6  5.0000000000000E-02  2.8766757535554E-01 -1.6044000525108E-02
7  6.0000000000000E-02  3.4520217989922E-01 -2.0996858854651E-02
8  7.0000000000000E-02  4.0271232891197E-01 -2.6835182225276E-02
9  8.0000000000000E-02  4.6017364976300E-01 -3.3653263772959E-02
10  9.0000000000000E-02  5.1755301287358E-01 -4.1522472028907E-02
11  1.0000000000000E-01  5.7480770202691E-01 -5.0489122876980E-02
12  1.1000000000000E-01  6.3188473958780E-01 -6.0572769702047E-02
13  1.2000000000000E-01  6.8872037787427E-01 -7.1764939871914E-02
14  1.3000000000000E-01  7.4523976536419E-01 -8.4028338154999E-02
15  1.4000000000000E-01  8.0135679373838E-01 -9.7296529808826E-02
16  1.5000000000000E-01  8.5697412900058E-01 -1.1147410801966E-01
17  1.6000000000000E-01  9.1198342712085E-01 -1.2643734227391E-01
18  1.7000000000000E-01  9.6626573186719E-01 -1.4203529624030E-01
19  1.8000000000000E-01  1.0196920497663E+00 -1.5809139598062E-01
20  1.9000000000000E-01  1.0721240945128E+00 -1.7440542192274E-01
21  2.0000000000000E-01  1.1234151906705E+00 -1.9075589115412E-01
22  2.1000000000000E-01  1.1734113242151E+00 -2.0690279034775E-01
23  2.2000000000000E-01  1.2219523253994E+00 -2.2259061412608E-01
24  2.3000000000000E-01  1.2688731676030E+00 -2.3755165899768E-01
25  2.4000000000000E-01  1.3140053642926E+00 -2.5150951924776E-01
26  2.5000000000000E-01  1.3571784449878E+00 -2.6418272839000E-01
27  2.6000000000000E-01  1.3982214902169E+00 -2.7528848803978E-01
28  2.7000000000000E-01  1.4369647048699E+00 -2.8454642537325E-01
29  2.8000000000000E-01  1.4732410091157E+00 -2.9168232069900E-01
30  2.9000000000000E-01  1.5068876261510E+00 -2.9643174807458E-01
31  3.0000000000000E-01  1.5377476464753E+00 -2.9854357431613E-01
32  3.1000000000000E-01  1.5656715491331E+00 -2.9778326511902E-01
33  3.2000000000000E-01  1.5905186614098E+00 -2.9393595126210E-01
34  3.3000000000000E-01  1.6121585397889E+00 -2.8680921291417E-01
35  3.4000000000000E-01  1.6304722565398E+00 -2.7623554579633E-01
36  3.5000000000000E-01  1.6453535780871E+00 -2.6207447925713E-01
37  3.6000000000000E-01  1.6567100232607E+00 -2.4421432305878E-01
38  3.7000000000000E-01  1.6644637916162E+00 -2.2257352671430E-01
39  3.8000000000000E-01  1.6685525541914E+00 -1.9710164241061E-01
40  3.9000000000000E-01  1.6689301012954E+00 -1.6777988975484E-01
41  4.0000000000000E-01  1.6655668441575E+00 -1.3462132764237E-01
42  4.1000000000000E-01  1.6584501694599E+00 -9.7670645320383E-02
43  4.2000000000000E-01  1.6475846478896E+00 -5.7003591073204E-02
44  4.3000000000000E-01  1.6329920998405E+00 -1.2726062755328E-02
45  4.4000000000000E-01  1.6147115232313E+00  3.5027110470802E-02
46  4.5000000000000E-01  1.5927988900549E+00  8.6093661473978E-02
47  4.6000000000000E-01  1.5673268197017E+00  1.4028561634603E-01
48  4.7000000000000E-01  1.5383841382927E+00  1.9739122363544E-01
49  4.8000000000000E-01  1.5060753341901E+00  2.5717704018960E-01
50  4.9000000000000E-01  1.4705199205196E+00  3.1939013153749E-01
51  5.0000000000000E-01  1.4318517159340E+00  3.8376034509530E-01
52  5.1000000000000E-01  1.3902180549722E+00  4.5000261579194E-01
53  5.2000000000000E-01  1.3457789392329E+00  5.1781926594397E-01
54  5.3000000000000E-01  1.2987061402003E+00  5.8690226429160E-01
55  5.4000000000000E-01  1.2491822639533E+00  6.5693541295337E-01
56  5.5000000000000E-01  1.1973997871835E+00  7.2759643555917E-01
57  5.6000000000000E-01  1.1435600729734E+00  7.9855894485784E-01
58  5.7000000000000E-01  1.0878723736811E+00  8.6949427353103E-01
59  5.8000000000000E-01  1.0305528270718E+00  9.4007315763304E-01
60  5.9000000000000E-01  9.7182345058409E-01  1.0099672678638E+00
61  6.0000000000000E-01  9.1191113734334E-01  1.0788505896128E+00
62  6.1000000000000E-01  8.5104665629645E-01  1.1464006582306E+00
63  6.2000000000000E-01  7.8946365766483E-01  1.2122996611359E+00
64  6.3000000000000E-01  7.2739768384828E-01  1.2762354230139E+00
65  6.4000000000000E-01  6.6508518498848E-01  1.3379022943642E+00
66  6.5000000000000E-01  6.0276253765286E-01  1.3970019669036E+00
67  6.6000000000000E-01  5.4066506455300E-01  1.4532442417208E+00
68  6.7000000000000E-01  4.7902605288835E-01  1.5063477775359E+00
69  6.8000000000000E-01  4.1807576882023E-01  1.5560408468858E+00
70  6.9000000000000E-01  3.5804046574115E-01  1.6020621275061E+00
71  7.0000000000000E-01  2.9914138441167E-01  1.6441615546110E+00
72  7.1000000000000E-01  2.4159374368395E-01  1.6821012572021E+00
73  7.2000000000000E-01  1.8560572140523E-01  1.7156565980246E+00
74  7.3000000000000E-01  1.3137742617407E-01  1.7446173324051E+00
75  7.4000000000000E-01  7.9099861880087E-02  1.7687888960504E+00
76  7.5000000000000E-01  2.8953888360526E-02  1.7879938260938E+00
77  7.6000000000000E-01 -1.8890816985407E-02  1.8020733133752E+00
78  7.7000000000000E-01 -6.4276790213406E-02  1.8108888773089E+00
79  7.8000000000000E-01 -1.0705979648679E-01  1.8143241478925E+00
80  7.9000000000000E-01 -1.4710982081990E-01  1.8122867326297E+00
81  8.0000000000000E-01 -1.8431202290237E-01  1.8047101395686E+00
82  8.1000000000000E-01 -2.1856764366533E-01  1.7915557214800E+00
83  8.2000000000000E-01 -2.4979485010603E-01  1.7728146006057E+00
84  8.3000000000000E-01 -2.7792950397316E-01  1.7485095285648E+00
85  8.4000000000000E-01 -3.0292583927272E-01  1.7186966320837E+00
86  8.5000000000000E-01 -3.2475703322184E-01  1.6834669923512E+00
87  8.6000000000000E-01 -3.4341565528313E-01  1.6429480041144E+00
88  8.7000000000000E-01 -3.5891397928056E-01  1.5973044602259E+00
89  8.8000000000000E-01 -3.7128414434148E-01  1.5467393082828E+00
90  8.9000000000000E-01 -3.8057815153586E-01  1.4914940283155E+00
91  9.0000000000000E-01 -3.8686768458874E-01  1.4318485841708E+00
92  9.1000000000000E-01 -3.9024374491170E-01  1.3681209062822E+00
93  9.2000000000000E-01 -3.9081609341313E-01  1.3006658698460E+00
94  9.3000000000000E-01 -3.8871249407103E-01  1.2298737399406E+00
95  9.4000000000000E-01 -3.8407775704782E-01  1.1561680637037E+00
96  9.5000000000000E-01 -3.7707258214427E-01  1.0800029991618E+00
97  9.6000000000000E-01 -3.6787220657387E-01  1.0018600805051E+00
98  9.7000000000000E-01 -3.5666486432839E-01  9.2224443030832E-01
99  9.8000000000000E-01 -3.4365006773386E-01  8.4168044019930E-01
100  9.9000000000000E-01 -3.2903672509329E-01  7.6070695252580E-01
101  1.0000000000000E+00 -3.1304111150765E-01  6.7987198642321E-01
102  1.0100000000000E+00 -2.9588471298785E-01  5.9972706210207E-01
103  1.0200000000000E+00 -2.7779196674920E-01  5.2082118690478E-01
104  1.0300000000000E+00 -2.5898792304676E-01  4.4369457548973E-01
105  1.0400000000000E+00 -2.3969585600536E-01  3.6887218417326E-01
106  1.0500000000000E+00 -2.2013485256699E-01  2.9685714580028E-01
107  1.0600000000000E+00 -2.0051740986919E-01  2.2812419633531E-01
108  1.0700000000000E+00 -1.8104707204755E-01  1.6311318754167E-01
109  1.0800000000000E+00 -1.6191613758950E-01  1.0222278152170E-01
110  1.0900000000000E+00 -1.4330346794363E-01  4.5804422466524E-02
111  1.1000000000000E+00 -1.2537242709451E-01 -5.8433213436639E-03
112  1.1100000000000E+00 -1.0826898026485E-01 -5.2479956402910E-02
113  1.1200000000000E+00 -9.2119977808662E-02 -9.3927720813802E-02
114  1.1300000000000E+00 -7.7031647755880E-02 -1.3007562390141E-01
115  1.1400000000000E+00 -6.3088316976899E-02 -1.6088280457204E-01
116  1.1500000000000E+00 -5.0351384427256E-02 -1.8638112361430E-01
117  1.1600000000000E+00 -3.8858602698022E-02 -2.0667674974567E-01
118  1.1700000000000E+00 -2.8625682368389E-02 -2.2194171310552E-01
119  1.1800000000000E+00 -1.9650006713680E-02 -2.3239703648987E-01
120  1.1900000000000E+00 -1.1912023410862E-02 -2.3830743805421E-01
121  1.2000000000000E+00 -5.3762030673825E-03 -2.3997839826264E-01
122  1.2100000000000E+00  7.7835672949059E-06 -2.3775253873327E-01
123  1.2200000000000E+00  4.3036879328351E-03 -2.3200537204817E-01
124  1.2300000000000E+00  7.5871223738617E-03 -2.2314047094071E-01
125  1.2400000000000E+00  9.9438364819642E-03 -2.1158412130845E-01
126  1.2500000000000E+00  1.1467855322145E-02 -1.9777953359004E-01
127  1.2600000000000E+00  1.2259506535794E-02 -1.8218069639463E-01
128  1.2700000000000E+00  1.2423365609099E-02 -1.6524596419453E-01
129  1.2800000000000E+00  1.2066150464327E-02 -1.4743147747932E-01
130  1.2900000000000E+00  1.1294597785873E-02 -1.2918451826389E-01
131  1.3000000000000E+00  1.0213354277319E-02 -1.1093690686404E-01
132  1.3100000000000E+00  8.9229204767062E-03 -9.3098560767425E-02
133  1.3200000000000E+00  7.5176339223035E-03 -7.6051170944014E-02
134  1.3300000000000E+00  6.0839378663580E-03 -6.0142793727048E-02
135  1.3400000000000E+00  4.6950114488604E-03 -4.5670492097519E-02
136  1.3500000000000E+00  3.4062844723731E-03 -3.2865088847721E-02
137  1.3600000000000E+00  2.2776070969166E-03 -2.1964722598401E-02
138  1.3700000000000E+00  1.3542842747217E-03 -1.3154025713288E-02
139  1.3800000000000E+00  6.6508730559778E-04 -6.5577655961376E-03
140  1.3900000000000E+00  2.2086167391276E-04 -2.2290962658350E-03
141  1.4000000000000E+00  2.1799849432237E-05 -2.2772150473792E-04
142  1.4100000000000E+00 -2.3063790126336E-06  2.4615941212945E-05
143  1.4200000000000E+00  3.7566490784186E-07 -3.9397215334271E-06
144  1.43  0.  0.
145  1.44  0.  0.
146  1.45  0.  0.
147  1.46  0.  0.
148  1.47  0.  0.
149  1.48  0.  0.
150  1.49  0.  0.
151  1.50  0.  0.
152  1.51  0.  0.
153  1.52  0.  0.
154  1.53  0.  0.
155  1.54  0.  0.
156  1.55  0.  0.
157  1.56  0.  0.
158  1.57  0.  0.
159  1.58  0.  0.
160  1.59  0.  0.
161  1.60  0.  0.
162  1.61  0.  0.
163  1.62  0.  0.
164  1.63  0.  0.
165  1.64  0.  0.
166  1.65  0.  0.
167  1.66  0.  0.
168  1.67  0.  0.
169  1.68  0.  0.
170  1.69  0.  0.
171  1.70  0.  0.
172  1.71  0.  0.
173  1.72  0.  0.
174  1.73  0.  0.
175  1.74  0.  0.
176  1.75  0.  0.
177  1.76  0.  0.
178  1.77  0.  0.
179  1.78  0.  0.
180  1.79  0.  0.
181  1.80  0.  0.
182  1.81  0.  0.
183  1.82  0.  0.
184  1.83  0.  0.
185  1.84  0.  0.
186  1.85  0.  0.
187  1.86  0.  0.
188  1.87  0.  0.
189  1.88  0.  0.
190  1.89  0.  0.
191  1.90  0.  0.
192  1.91  0.  0.
193  1.92  0.  0.
194  1.93  0.  0.
195  1.94  0.  0.
196  1.95  0.  0.
197  1.96  0.  0.
198  1.97  0.  0.
199  1.98  0.  0.
200  1.99  0.  0.
201  2.00  0.  0.
202  2.01  0.  0.
203  2.02  0.  0.
204  2.03  0.  0.
205  2.04  0.  0.
206  2.05  0.  0.
207  2.06  0.  0.
208  2.07  0.  0.
209  2.08  0.  0.
210  2.09  0.  0.
211  2.10  0.  0.
212  2.11  0.  0.
213  2.12  0.  0.
214  2.13  0.  0.
215  2.14  0.  0.
216  2.15  0.  0.
217  2.16  0.  0.
218  2.17  0.  0.
219  2.18  0.  0.
220  2.19  0.  0.
221  2.20  0.  0.
222  2.21  0.  0.
223  2.22  0.  0.
224  2.23  0.  0.
225  2.24  0.  0.
226  2.25  0.  0.
227  2.26  0.  0.
228  2.27  0.  0.
229  2.28  0.  0.
230  2.29  0.  0.
231  2.30  0.  0.
232  2.31  0.  0.
233  2.32  0.  0.
234  2.33  0.  0.
235  2.34  0.  0.
236  2.35  0.  0.
237  2.36  0.  0.
238  2.37  0.  0.
239  2.38  0.  0.
240  2.39  0.  0.
241  2.40  0.  0.
242  2.41  0.  0.
243  2.42  0.  0.
244  2.43  0.  0.
245  2.44  0.  0.
246  2.45  0.  0.
247  2.46  0.  0.
248  2.47  0.  0.
249  2.48  0.  0.
250  2.49  0.  0.
251  2.50  0.  0.
252  2.51  0.  0.
253  2.52  0.  0.
254  2.53  0.  0.
255  2.54  0.  0.
256  2.55  0.  0.
257  2.56  0.  0.
258  2.57  0.  0.
259  2.58  0.  0.
260  2.59  0.  0.
261  2.60  0.  0.
262  2.61  0.  0.
263  2.62  0.  0.
264  2.63  0.  0.
265  2.64  0.  0.
266  2.65  0.  0.
267  2.66  0.  0.
268  2.67  0.  0.
269  2.68  0.  0.
270  2.69  0.  0.
271  2.70  0.  0.
272  2.71  0.  0.
273  2.72  0.  0.
274  2.73  0.  0.
275  2.74  0.  0.
276  2.75  0.  0.
277  2.76  0.  0.
278  2.77  0.  0.
279  2.78  0.  0.
280  2.79  0.  0.
281  2.80  0.  0.
282  2.81  0.  0.
283  2.82  0.  0.
284  2.83  0.  0.
285  2.84  0.  0.
286  2.85  0.  0.
287  2.86  0.  0.
288  2.87  0.  0.
289  2.88  0.  0.
290  2.89  0.  0.
291  2.90  0.  0.
292  2.91  0.  0.
293  2.92  0.  0.
294  2.93  0.  0.
295  2.94  0.  0.
296  2.95  0.  0.
297  2.96  0.  0.
298  2.97  0.  0.
299  2.98  0.  0.
300  2.99  0.  0.
301  3.00  0.  0.
302  3.01  0.  0.
303  3.02  0.  0.
304  3.03  0.  0.
305  3.04  0.  0.
306  3.05  0.  0.
307  3.06  0.  0.
308  3.07  0.  0.
309  3.08  0.  0.
310  3.09  0.  0.
311  3.10  0.  0.
312  3.11  0.  0.
313  3.12  0.  0.
314  3.13  0.  0.
315  3.14  0.  0.
316  3.15  0.  0.
317  3.16  0.  0.
318  3.17  0.  0.
319  3.18  0.  0.
320  3.19  0.  0.
321  3.20  0.  0.
322  3.21  0.  0.
323  3.22  0.  0.
324  3.23  0.  0.
325  3.24  0.  0.
326  3.25  0.  0.
327  3.26  0.  0.
328  3.27  0.  0.
329  3.28  0.  0.
330  3.29  0.  0.
331  3.30  0.  0.
332  3.31  0.  0.
333  3.32  0.  0.
334  3.33  0.  0.
335  3.34  0.  0.
336  3.35  0.  0.
337  3.36  0.  0.
338  3.37  0.  0.
339  3.38  0.  0.
340  3.39  0.  0.
341  3.40  0.  0.
342  3.41  0.  0.
343  3.42  0.  0.
344  3.43  0.  0.
345  3.44  0.  0.
346  3.45  0.  0.
347  3.46  0.  0.
348  3.47  0.  0.
349  3.48  0.  0.
350  3.49  0.  0.
351  3.50  0.  0.
352  3.51  0.  0.
353  3.52  0.  0.
354  3.53  0.  0.
355  3.54  0.  0.
356  3.55  0.  0.
357  3.56  0.  0.
358  3.57  0.  0.
359  3.58  0.  0.
360  3.59  0.  0.
361  3.60  0.  0.
362  3.61  0.  0.
363  3.62  0.  0.
364  3.63  0.  0.
365  3.64  0.  0.
366  3.65  0.  0.
367  3.66  0.  0.
368  3.67  0.  0.
369  3.68  0.  0.
370  3.69  0.  0.
371  3.70  0.  0.
372  3.71  0.  0.
373  3.72  0.  0.
374  3.73  0.  0.
375  3.74  0.  0.
376  3.75  0.  0.
377  3.76  0.  0.
378  3.77  0.  0.
379  3.78  0.  0.
380  3.79  0.  0.
381  3.80  0.  0.
382  3.81  0.  0.
383  3.82  0.  0.
384  3.83  0.  0.
385  3.84  0.  0.
386  3.85  0.  0.
387  3.86  0.  0.
388  3.87  0.  0.
389  3.88  0.  0.
390  3.89  0.  0.
391  3.90  0.  0.
392  3.91  0.  0.
393  3.92  0.  0.
394  3.93  0.  0.
395  3.94  0.  0.
396  3.95  0.  0.
397  3.96  0.  0.
398  3.97  0.  0.
399  3.98  0.  0.
400  3.99  0.  0.
401  4.00  0.  0.
402  4.01  0.  0.
403  4.02  0.  0.
404  4.03  0.  0.
405  4.04  0.  0.
406  4.05  0.  0.
407  4.06  0.  0.
408  4.07  0.  0.
409  4.08  0.  0.
410  4.09  0.  0.
411  4.10  0.  0.
412  4.11  0.  0.
413  4.12  0.  0.
414  4.13  0.  0.
415  4.14  0.  0.
416  4.15  0.  0.
417  4.16  0.  0.
418  4.17  0.  0.
419  4.18  0.  0.
420  4.19  0.  0.
421  4.20  0.  0.
422  4.21  0.  0.
423  4.22  0.  0.
424  4.23  0.  0.
425  4.24  0.  0.
426  4.25  0.  0.
427  4.26  0.  0.
428  4.27  0.  0.
429  4.28  0.  0.
430  4.29  0.  0.
431  4.30  0.  0.
432  4.31  0.  0.
433  4.32  0.  0.
434  4.33  0.  0.
435  4.34  0.  0.
436  4.35  0.  0.
437  4.36  0.  0.
438  4.37  0.  0.
439  4.38  0.  0.
440  4.39  0.  0.
441  4.40  0.  0.
442  4.41  0.  0.
443  4.42  0.  0.
444  4.43  0.  0.
445  4.44  0.  0.
446  4.45  0.  0.
447  4.46  0.  0.
448  4.47  0.  0.
449  4.48  0.  0.
450  4.49  0.  0.
451  4.50  0.  0.
452  4.51  0.  0.
453  4.52  0.  0.
454  4.53  0.  0.
455  4.54  0.  0.
456  4.55  0.  0.
457  4.56  0.  0.
458  4.57  0.  0.
459  4.58  0.  0.
460  4.59  0.  0.
461  4.60  0.  0.
462  4.61  0.  0.
463  4.62  0.  0.
464  4.63  0.  0.
465  4.64  0.  0.
466  4.65  0.  0.
467  4.66  0.  0.
468  4.67  0.  0.
469  4.68  0.  0.
470  4.69  0.  0.
471  4.70  0.  0.
472  4.71  0.  0.
473  4.72  0.  0.
474  4.73  0.  0.
475  4.74  0.  0.
476  4.75  0.  0.
477  4.76  0.  0.
478  4.77  0.  0.
479  4.78  0.  0.
480  4.79  0.  0.
481  4.80  0.  0.
482  4.81  0.  0.
483  4.82  0.  0.
484  4.83  0.  0.
485  4.84  0.  0.
486  4.85  0.  0.
487  4.86  0.  0.
488  4.87  0.  0.
489  4.88  0.  0.
490  4.89  0.  0.
491  4.90  0.  0.
492  4.91  0.  0.
493  4.92  0.  0.
494  4.93  0.  0.
495  4.94  0.  0.
496  4.95  0.  0.
497  4.96  0.  0.
498  4.97  0.  0.
499  4.98  0.  0.
500  4.99  0.  0.
501  5.00  0.  0.
502  5.01  0.  0.
503  5.02  0.  0.
504  5.03  0.  0.
505  5.04  0.  0.
506  5.05  0.  0.
507  5.06  0.  0.
508  5.07  0.  0.
509  5.08  0.  0.
510  5.09  0.  0.
511  5.10  0.  0.
512  5.11  0.  0.
513  5.12  0.  0.
514  5.13  0.  0.
515  5.14  0.  0.
516  5.15  0.  0.
517  5.16  0.  0.
518  5.17  0.  0.
519  5.18  0.  0.
520  5.19  0.  0.
521  5.20  0.  0.
522  5.21  0.  0.
523  5.22  0.  0.
524  5.23  0.  0.
525  5.24  0.  0.
526  5.25  0.  0.
527  5.26  0.  0.
528  5.27  0.  0.
529  5.28  0.  0.
530  5.29  0.  0.
531  5.30  0.  0.
532  5.31  0.  0.
533  5.32  0.  0.
534  5.33  0.  0.
535  5.34  0.  0.
536  5.35  0.  0.
537  5.36  0.  0.
538  5.37  0.  0.
539  5.38  0.  0.
540  5.39  0.  0.
541  5.40  0.  0.
542  5.41  0.  0.
543  5.42  0.  0.
544  5.43  0.  0.
545  5.44  0.  0.
546  5.45  0.  0.
547  5.46  0.  0.
548  5.47  0.  0.
549  5.48  0.  0.
550  5.49  0.  0.
551  5.50  0.  0.
552  5.51  0.  0.
553  5.52  0.  0.
554  5.53  0.  0.
555  5.54  0.  0.
556  5.55  0.  0.
557  5.56  0.  0.
558  5.57  0.  0.
559  5.58  0.  0.
560  5.59  0.  0.
561  5.60  0.  0.
562  5.61  0.  0.
563  5.62  0.  0.
564  5.63  0.  0.
565  5.64  0.  0.
566  5.65  0.  0.
567  5.66  0.  0.
568  5.67  0.  0.
569  5.68  0.  0.
570  5.69  0.  0.
571  5.70  0.  0.
572  5.71  0.  0.
573  5.72  0.  0.
574  5.73  0.  0.
575  5.74  0.  0.
576  5.75  0.  0.
577  5.76  0.  0.
578  5.77  0.  0.
579  5.78  0.  0.
580  5.79  0.  0.
581  5.80  0.  0.
582  5.81  0.  0.
583  5.82  0.  0.
584  5.83  0.  0.
585  5.84  0.  0.
586  5.85  0.  0.
587  5.86  0.  0.
588  5.87  0.  0.
589  5.88  0.  0.
590  5.89  0.  0.
591  5.90  0.  0.
592  5.91  0.  0.
593  5.92  0.  0.
594  5.93  0.  0.
595  5.94  0.  0.
596  5.95  0.  0.
597  5.96  0.  0.
598  5.97  0.  0.
599  5.98  0.  0.
600  5.99  0.  0.
1                         1.5498504577437E+01  2.4902353221137E+00  1.1508720990067E-01
1  0.0000000000000E+00 -3.3600193738437E-09  1.1988464283796E-08 -3.3200300397773E-08
2  1.0000000000000E-02  1.3261586526935E-03 -9.0207543772778E-04  2.1827356782499E-03
3  2.0000000000000E-02  5.3034404439917E-03 -3.6099229105223E-03  8.7309291613558E-03
4  3.0000000000000E-02  1.1928188557052E-02 -8.1281653270911E-03  1.9643937073672E-02
5  4.0000000000000E-02  2.1194062655463E-02 -1.4463713223346E-02  3.4918699145140E-02
6  5.0000000000000E-02  3.3091677649002E-02 -2.2624599648122E-02  5.4546829488133E-02
7  6.0000000000000E-02  4.7608112237904E-02 -3.2618400974979E-02  7.8510688799205E-02
8  7.0000000000000E-02  6.4726301082427E-02 -4.4450293914807E-02  1.0677857711764E-01
9  8.0000000000000E-02  8.4424327804474E-02 -5.8120810992447E-02  1.3929921997298E-01
10  9.0000000000000E-02  1.0667463896128E-01 -7.3623367041453E-02  1.7599574916148E-01
11  1.0000000000000E-01  1.3144320156417E-01 -9.0941637577693E-02  2.1675940219842E-01
12  1.1000000000000E-01  1.5868862858781E-01 -1.1004687599967E-01  2.6144318102351E-01
13  1.2000000000000E-01  1.8836129817977E-01 -1.3089526025286E-01  3.0985572028079E-01
14  1.3000000000000E-01  2.2040249290487E-01 -1.5342536077122E-01  3.6175561810898E-01
15  1.4000000000000E-01  2.5474358532740E-01 -1.7755582012098E-01  4.1684647771029E-01
16  1.5000000000000E-01  2.9130529554662E-01 -2.0318333083582E-01  4.7477289604061E-01
17  1.6000000000000E-01  3.2999704497386E-01 -2.3018099153395E-01  5.3511761700505E-01
18  1.7000000000000E-01  3.7071642870475E-01 -2.5839711269382E-01  5.9740004095151E-01
19  1.8000000000000E-01  4.1334882634541E-01 -2.8765453265019E-01  6.6107625061210E-01
20  1.9000000000000E-01  4.5776716815839E-01 -3.1775049172275E-01  7.2554067669318E-01
21  2.0000000000000E-01  5.0383186997708E-01 -3.4845709822774E-01  7.9012948494817E-01
22  2.1000000000000E-01  5.5139094658099E-01 -3.7952240480997E-01  8.5412572180281E-01
23  2.2000000000000E-01  6.0028030922275E-01 -4.1067209746731E-01  9.1676620855793E-01
24  2.3000000000000E-01  6.5032424885125E-01 -4.4161178324277E-01  9.7725012606451E-01
25  2.4000000000000E-01  7.0133610238796E-01 -4.7202984626640E-01  1.0347491837920E+00
26  2.5000000000000E-01  7.5311909529049E-01 -5.0160082607792E-01  1.0884192206489E+00
27  2.6000000000000E-01  8.0546734968406E-01 -5.2998925738053E-01  1.1374130410065E+00
28  2.7000000000000E-01  8.5816704365587E-01 -5.5685389697470E-01  1.1808942493126E+00
29  2.8000000000000E-01  9.1099770398564E-01 -5.8185225197614E-01  1.2180518115846E+00
30  2.9000000000000E-01  9.6373361170907E-01 -6.0464531387014E-01  1.2481150429406E+00
31  3.0000000000000E-01  1.0161452975562E+00 -6.2490239578073E-01  1.2703686980429E+00
32  3.1000000000000E-01  1.0680011025299E+00 -6.4230596576283E-01  1.2841678266021E+00
33  3.2000000000000E-01  1.1190687777394E+00 -6.5655636711977E-01  1.2889520494625E+00
34  3.3000000000000E-01  1.1691170971047E+00 -6.6737631779549E-01  1.2842589125943E+00
35  3.4000000000000E-01  1.2179174567150E+00 -6.7451508480412E-01  1.2697359866916E+00
36  3.5000000000000E-01  1.2652454354476E+00 -6.7775223637787E-01  1.2451513989376E+00
37  3.6000000000000E-01  1.3108822929142E+00 -6.7690088389846E-01  1.2104025105443E+00
38  3.7000000000000E-01  1.3546163828524E+00 -6.7181033751527E-01  1.1655224883989E+00
39  3.8000000000000E-01  1.3962444626660E+00 -6.6236811336466E-01  1.1106845608361E+00
40  3.9000000000000E-01  1.4355728828738E+00 -6.4850124614395E-01  1.0462037953022E+00
41  4.0000000000000E-01  1.4724186436478E+00 -6.3017687806186E-01  9.7253628841229E-01
42  4.1000000000000E-01  1.5066103093396E+00 -6.0740211343931E-01  8.9027571540915E-01
43  4.2000000000000E-01  1.5379887757734E+00 -5.8022314699199E-01  8.0014724497772E-01
44  4.3000000000000E-01  1.5664078890421E+00 -5.4872369258661E-01  7.0299888533674E-01
45  4.4000000000000E-01  1.5917349184435E+00 -5.1302275751774E-01  5.9979038705025E-01
46  4.5000000000000E-01  1.6138508899396E+00 -4.7327182459393E-01  4.9157988559425E-01
47  4.6000000000000E-01  1.6326507899963E+00 -4.2965152006455E-01  3.7950852092411E-01
48  4.7000000000000E-01  1.6480436527573E+00 -3.8236785920508E-01  2.6478332071664E-01
49  4.8000000000000E-01  1.6599525461451E+00 -3.3164817279938E-01  1.4865867731350E-01
50  4.9000000000000E-01  1.6683144745593E+00 -2.7773682645666E-01  3.2416784503422E-02
51  5.0000000000000E-01  1.6730802173202E+00 -2.2089085039300E-01 -8.2652571847468E-02
52  5.1000000000000E-01  1.6742141228057E+00 -1.6137559978302E-01 -1.9527245648201E-01
53  5.2000000000000E-01  1.6716938783438E+00 -9.9460564919664E-02 -3.0419903872679E-01
54  5.3000000000000E-01  1.6655102753282E+00 -3.5415446175250E-02 -4.0824123651961E-01
55  5.4000000000000E-01  1.6556669877317E+00  3.0493398811443E-02 -5.0627934013440E-01
56  5.5000000000000E-01  1.6421803802383E+00  9.8006039036845E-02 -5.9728222606798E-01
57  5.6000000000000E-01  1.6250793596402E+00  1.6687150211190E-01 -6.8032280189924E-01
58  5.7000000000000E-01  1.6044052800335E+00  2.3684968758696E-01 -7.5459136215746E-01
59  5.8000000000000E-01  1.5802119087696E+00  3.0771261337142E-01 -8.1940658244023E-01
60  5.9000000000000E-01  1.5525654561942E+00  3.7924496720298E-01 -8.7422393310928E-01
61  6.0000000000000E-01  1.5215446680424E+00  4.5124395651869E-01 -9.1864135355942E-01
62  6.1000000000000E-01  1.4872409750840E+00  5.2351847208952E-01 -9.5240209185034E-01
63  6.2000000000000E-01  1.4497586903621E+00  5.9588760279161E-01 -9.7539468084053E-01
64  6.3000000000000E-01  1.4092152402784E+00  6.6817856027861E-01 -9.8765008919599E-01
65  6.4000000000000E-01  1.3657414119805E+00  7.4022409246746E-01 -9.8933615207819E-01
66  6.5000000000000E-01  1.3194815961385E+00  8.1185948305490E-01 -9.8074945023277E-01
67  6.6000000000000E-01  1.2705940013770E+00  8.8291925017810E-01 -9.6230486596641E-01
68  6.7000000000000E-01  1.2192508144644E+00  9.5323367031001E-01 -9.3452309854921E-01
69  6.8000000000000E-01  1.1656382789558E+00  1.0226252630935E+00 -8.9801646849773E-01
70  6.9000000000000E-01  1.1099566644042E+00  1.0909053787097E+00 -8.5347337872926E-01
71  7.0000000000000E-01  1.0524200985586E+00  1.1578710312776E+00 -8.0164182969221E-01
72  7.1000000000000E-01  9.9325623618781E-01  1.2233021195310E+00 -7.4331240447488E-01
73  7.2000000000000E-01  9.3270574030280E-01  1.2869591695648E+00 -6.7930114803885E-01
74  7.3000000000000E-01  8.7102155459020E-01  1.3485817238493E+00 -6.1043276185829E-01
75  7.4000000000000E-01  8.0846794975453E-01  1.4078874861522E+00 -5.3752452141226E-01
76  7.5000000000000E-01  7.4531933113571E-01  1.4645723137853E+00 -4.6137129950253E-01
77  7.6000000000000E-01  6.8185880031703E-01  1.5183111270967E+00 -3.8273204386802E-01
78  7.7000000000000E-01  6.1837646935057E-01  1.5687597818727E+00 -3.0231801393862E-01
79  7.8000000000000E-01  5.5516753256245E-01  1.6155579238723E+00 -2.2078302994820E-01
80  7.9000000000000E-01  4.9253010750316E-01  1.6583328167692E+00 -1.3871592938512E-01
81  8.0000000000000E-01  4.3076286330999E-01  1.6967041060359E+00 -5.6635362454298E-02
82  8.1000000000000E-01  3.7016246137278E-01  1.7302894525338E+00  2.5013008440247E-02
83  8.2000000000000E-01  3.1102083955985E-01  1.7587109415637E+00  1.0585690839229E-01
84  8.3000000000000E-01  2.5362237718813E-01  1.7816021466517E+00  1.8559551996291E-01
85  8.4000000000000E-01  1.9824098323695E-01  1.7986157031677E+00  2.6399536021578E-01
86  8.5000000000000E-01  1.4513715484464E-01  1.8094312257071E+00  3.4088416329930E-01
87  8.6000000000000E-01  9.4555056744529E-02  1.8137633856677E+00  4.1614302299645E-01
88  8.7000000000000E-01  4.6719674863252E-02  1.8113699521944E+00  4.8969709827656E-01
89  8.8000000000000E-01  1.8340987163161E-03  1.8020595911114E+00  5.6150522477164E-01
90  8.9000000000000E-01 -3.9923012583500E-02  1.7856992129756E+00  6.3154880509967E-01
91  9.0000000000000E-01 -7.8399726987061E-02  1.7622206631986E+00  6.9982037016801E-01
92  9.1000000000000E-01 -1.1347284751213E-01  1.7316265543795E+00  7.6631221140093E-01
93  9.2000000000000E-01 -1.4504958392811E-01  1.6939950535409E+00  8.3100547995002E-01
94  9.3000000000000E-01 -1.7306884535087E-01  1.6494834546576E+00  8.9386013338156E-01
95  9.4000000000000E-01 -1.9750211700550E-01  1.5983303893928E+00  9.5480608344899E-01
96  9.5000000000000E-01 -2.1835389146798E-01  1.5408565558508E+00  1.0137358610009E+00
97  9.6000000000000E-01 -2.3566163262842E-01  1.4774638758176E+00  1.0704990668285E+00
98  9.7000000000000E-01 -2.4949525925995E-01  1.4086330247047E+00  1.1248988215537E+00
99  9.8000000000000E-01 -2.5995614423597E-01  1.3349193144416E+00  1.1766903649866E+00
100  9.9000000000000E-01 -2.6717563490433E-01  1.2569469470083E+00  1.2255818874448E+00
101  1.0000000000000E+00 -2.7131310967773E-01  1.1754016942350E+00  1.2712376041855E+00
102  1.0100000000000E+00 -2.7255359530905E-01  1.0910220969748E+00  1.3132830113109E+00
103  1.0200000000000E+00 -2.7110497836049E-01  1.0045893128365E+00  1.3513121892808E+00
104  1.0300000000000E+00 -2.6719485281663E-01  9.1691577536502E-01  1.3848969505761E+00
105  1.0400000000000E+00 -2.6106705342497E-01  8.2883285802990E-01  1.4135975630461E+00
106  1.0500000000000E+00 -2.5297793098296E-01  7.4117776279693E-01  1.4369747218438E+00
107  1.0600000000000E+00 -2.4319243123665E-01  6.5477987464140E-01  1.4546023924612E+00
108  1.0700000000000E+00 -2.3198004318546E-01  5.7044683955445E-01  1.4660811065307E+00
109  1.0800000000000E+00 -2.1961068526810E-01  4.8895063385541E-01  1.4710512621130E+00
110  1.0900000000000E+00 -2.0635059906349E-01  4.1101389663966E-01  1.4692059620685E+00
111  1.1000000000000E+00 -1.9245831972430E-01  3.3729679474129E-01  1.4603029184046E+00
112  1.1100000000000E+00 -1.7818079037419E-01  2.6838468069226E-01  1.4441749575210E+00
113  1.1200000000000E+00 -1.6374968415674E-01  2.0477678887406E-01  1.4207386810190E+00
114  1.1300000000000E+00 -1.4937799261969E-01  1.4687619378207E-01  1.3900008686959E+00
115  1.1400000000000E+00 -1.3525693234352E-01  9.4981225543012E-02  1.3520622513199E+00
116  1.1500000000000E+00 -1.2155322060329E-01  4.9278537603265E-02  1.3071183782002E+00
117  1.1600000000000E+00 -1.0840679529122E-01  9.8381518480728E-03  1.2554575909893E+00
118  1.1700000000000E+00 -9.5930886236539E-02 -2.3380361416250E-02  1.1974685438802E+00
119  1.1800000000000E+00 -8.4214533229561E-02 -5.0511661868501E-02  1.1336575648315E+00
120  1.1900000000000E+00 -7.3323489340762E-02 -7.1778373741689E-02  1.0646486688655E+00
121  1.2000000000000E+00 -6.3301007159258E-02 -8.7486010555348E-02  9.9117665631048E-01
122  1.2100000000000E+00 -5.4169064993585E-02 -9.8016151003578E-02  9.1407731395688E-01
123  1.2200000000000E+00 -4.5929999230236E-02 -1.0381801305239E-01  8.3427487755928E-01
124  1.2300000000000E+00 -3.8568504591391E-02 -1.0539858793394E-01  7.5276701770869E-01
125  1.2400000000000E+00 -3.2053954922111E-02 -1.0331153429417E-01  6.7060767192553E-01
126  1.2500000000000E+00 -2.6342989979634E-02 -9.8145062191683E-02  5.8888810539332E-01
127  1.2600000000000E+00 -2.1382307686227E-02 -9.0509061388159E-02  5.0871663179053E-01
128  1.2700000000000E+00 -1.7111596623451E-02 -8.1021747541801E-02  4.3119746445401E-01
129  1.2800000000000E+00 -1.3466534655734E-02 -7.0296126799466E-02  3.5740919488729E-01
130  1.2900000000000E+00 -1.0381835596113E-02 -5.8926445340322E-02  2.8838339867343E-01
131  1.3000000000000E+00 -7.7940427203758E-03 -4.7475478111052E-02  2.2508390028829E-01
132  1.3100000000000E+00 -5.6512077764770E-03 -3.6445472372441E-02  1.6838762980249E-01
133  1.3200000000000E+00 -3.9129826590594E-03 -2.6273086330969E-02  1.1907522660670E-01
134  1.3300000000000E+00 -2.5289429829216E-03 -1.7377244115836E-02  7.7811074310723E-02
135  1.3400000000000E+00 -1.4611551653537E-03 -1.0099594453726E-02  4.5105395168979E-02