Lv    ONCVPSP-4.0.1  r_core=   1.40419   1.35469   1.30693   1.50870
116.0000     24.0000      230613    zatom,zion,pspd
8      11   3     4   600     0    pspcod,pspxc,lmax,lloc,mmax,r2well
5.99000000  5.00000000  0.00000000    rchrg fchrg qchrg
2     2     2     1     0    nproj
1     1           extension_switch
0                         2.0051965684350E+01  2.7039556447144E+00
1  0.0000000000000E+00  1.3743925997289E-09 -4.0707383505700E-09
2  1.0000000000000E-02  5.8565045189752E-02 -3.4690195655062E-03
3  2.0000000000000E-02  1.1712774702861E-01 -7.0963594551418E-03
4  3.0000000000000E-02  1.7568437061830E-01 -1.1036675433654E-02
5  4.0000000000000E-02  2.3422842072563E-01 -1.5437356225482E-02
6  5.0000000000000E-02  2.9274931815653E-01 -2.0435044126706E-02
7  6.0000000000000E-02  3.5123114298248E-01 -2.6152337614867E-02
8  7.0000000000000E-02  4.0965146525897E-01 -3.2694731744270E-02
9  8.0000000000000E-02  4.6798028250140E-01 -4.0147848043595E-02
10  9.0000000000000E-02  5.2617908150880E-01 -4.8575000680762E-02
11  1.0000000000000E-01  5.8420004017870E-01 -5.8015139914065E-02
12  1.1000000000000E-01  6.4198538276884E-01 -6.8481207410306E-02
13  1.2000000000000E-01  6.9946689966984E-01 -7.9958930993890E-02
14  1.3000000000000E-01  7.5656564019712E-01 -9.2406078919883E-02
15  1.4000000000000E-01  8.1319178423228E-01 -1.0575218597099E-01
16  1.5000000000000E-01  8.6924469578894E-01 -1.1989875570209E-01
17  1.6000000000000E-01  9.2461315878975E-01 -1.3471993513743E-01
18  1.7000000000000E-01  9.7917579256790E-01 -1.5006365030769E-01
19  1.8000000000000E-01  1.0328016418915E+00 -1.6575318333767E-01
20  1.9000000000000E-01  1.0853509336994E+00 -1.8158916449672E-01
21  2.0000000000000E-01  1.1366759902717E+00 -1.9735194583283E-01
22  2.1000000000000E-01  1.1866222862825E+00 -2.1280431684856E-01
23  2.2000000000000E-01  1.2350296351259E+00 -2.2769451725112E-01
24  2.3000000000000E-01  1.2817334881081E+00 -2.4175949721553E-01
25  2.4000000000000E-01  1.3265663285812E+00 -2.5472837191970E-01
26  2.5000000000000E-01  1.3693591418849E+00 -2.6632601440482E-01
27  2.6000000000000E-01  1.4099429410745E+00 -2.7627672913040E-01
28  2.7000000000000E-01  1.4481503278605E+00 -2.8430794795389E-01
29  2.8000000000000E-01  1.4838170679704E+00 -2.9015389067749E-01
30  2.9000000000000E-01  1.5167836602696E+00 -2.9355913375321E-01
31  3.0000000000000E-01  1.5468968794326E+00 -2.9428203318803E-01
32  3.1000000000000E-01  1.5740112727294E+00 -2.9209795108892E-01
33  3.2000000000000E-01  1.5979905925641E+00 -2.8680223956132E-01
34  3.3000000000000E-01  1.6187091477500E+00 -2.7821294073256E-01
35  3.4000000000000E-01  1.6360530580955E+00 -2.6617316741092E-01
36  3.5000000000000E-01  1.6499213986770E+00 -2.5055313518962E-01
37  3.6000000000000E-01  1.6602272221529E+00 -2.3125182353613E-01
38  3.7000000000000E-01  1.6668984495769E+00 -2.0819825042940E-01
39  3.8000000000000E-01  1.6698786223711E+00 -1.8135235227823E-01
40  3.9000000000000E-01  1.6691275103614E+00 -1.5070546802500E-01
41  4.0000000000000E-01  1.6646215730252E+00 -1.1628043336324E-01
42  4.1000000000000E-01  1.6563542733049E+00 -7.8131297731508E-02
43  4.2000000000000E-01  1.6443362454644E+00 -3.6342683052197E-02
44  4.3000000000000E-01  1.6285953204567E+00  8.9711910654718E-03
45  4.4000000000000E-01  1.6091764141128E+00  5.7667785860339E-02
46  4.5000000000000E-01  1.5861412851002E+00  1.0957779158693E-01
47  4.6000000000000E-01  1.5595681710229E+00  1.6450690776054E-01
48  4.7000000000000E-01  1.5295513122120E+00  2.2223781539361E-01
49  4.8000000000000E-01  1.4962003736726E+00  2.8253229957192E-01
50  4.9000000000000E-01  1.4596397762998E+00  3.4513348013846E-01
51  5.0000000000000E-01  1.4200079488466E+00  4.0976810865876E-01
52  5.1000000000000E-01  1.3774565122269E+00  4.7614889120787E-01
53  5.2000000000000E-01  1.3321494075679E+00  5.4397679880189E-01
54  5.3000000000000E-01  1.2842619790181E+00  6.1294333042736E-01
55  5.4000000000000E-01  1.2339800216713E+00  6.8273269751186E-01
56  5.5000000000000E-01  1.1814988041289E+00  7.5302390322365E-01
57  5.6000000000000E-01  1.1270220742120E+00  8.2349269506320E-01
58  5.7000000000000E-01  1.0707610551888E+00  8.9381337467985E-01
59  5.8000000000000E-01  1.0129334386467E+00  9.6366045456769E-01
60  5.9000000000000E-01  9.5376237884138E-01  1.0327101571106E+00
61  6.0000000000000E-01  8.9347549205181E-01  1.1006417572034E+00
62  6.1000000000000E-01  8.3230386319250E-01  1.1671387752182E+00
63  6.2000000000000E-01  7.7048106072916E-01  1.2318900322558E+00
64  6.3000000000000E-01  7.0824215984922E-01  1.2945905842907E+00
65  6.4000000000000E-01  6.4582277288943E-01  1.3549425558332E+00
66  6.5000000000000E-01  5.8345808525229E-01  1.4126558969975E+00
67  6.6000000000000E-01  5.2138189447797E-01  1.4674490902664E+00
68  6.7000000000000E-01  4.5982564980013E-01  1.5190498347130E+00
69  6.8000000000000E-01  3.9901748941781E-01  1.5671957359157E+00
70  6.9000000000000E-01  3.3918127286938E-01  1.6116350292657E+00
71  7.0000000000000E-01  2.8053560629902E-01  1.6521273628033E+00
72  7.1000000000000E-01  2.2329285905571E-01  1.6884446631572E+00
73  7.2000000000000E-01  1.6765817094431E-01  1.7203721046594E+00
74  7.3000000000000E-01  1.1382845053769E-01  1.7477091973247E+00
75  7.4000000000000E-01  6.1991366229964E-02  1.7702710042432E+00
76  7.5000000000000E-01  1.2324333129302E-02  1.7878894931385E+00
77  7.6000000000000E-01 -3.5006499583969E-02  1.8004150205541E+00
78  7.7000000000000E-01 -7.9847254617881E-02  1.8077179404974E+00
79  7.8000000000000E-01 -1.2205731802423E-01  1.8096903225713E+00
80  7.9000000000000E-01 -1.6151030675136E-01  1.8062477578425E+00
81  8.0000000000000E-01 -1.9809500140772E-01  1.7973312241195E+00
82  8.1000000000000E-01 -2.3171623199529E-01  1.7829089761285E+00
83  8.2000000000000E-01 -2.6229570320355E-01  1.7629784204730E+00
84  8.3000000000000E-01 -2.8977274491627E-01  1.7375679304047E+00
85  8.4000000000000E-01 -3.1410497291989E-01  1.7067385514956E+00
86  8.5000000000000E-01 -3.3526884444856E-01  1.6705855464118E+00
87  8.6000000000000E-01 -3.5326009318914E-01  1.6292397252814E+00
88  8.7000000000000E-01 -3.6809402872162E-01  1.5828685077080E+00
89  8.8000000000000E-01 -3.7980568610205E-01  1.5316766633816E+00
90  8.9000000000000E-01 -3.8844981241158E-01  1.4759066805075E+00
91  9.0000000000000E-01 -3.9410067859361E-01  1.4158387149251E+00
92  9.1000000000000E-01 -3.9685170676781E-01  1.3517900777800E+00
93  9.2000000000000E-01 -3.9681490542272E-01  1.2841142258893E+00
94  9.3000000000000E-01 -3.9412010741590E-01  1.2131992264020E+00
95  9.4000000000000E-01 -3.8891400851085E-01  1.1394656758724E+00
96  9.5000000000000E-01 -3.8135900720581E-01  1.0633640632854E+00
97  9.6000000000000E-01 -3.7163184980317E-01  9.8537157670429E-01
98  9.7000000000000E-01 -3.5992208796893E-01  9.0598836385807E-01
99  9.8000000000000E-01 -3.4643035937310E-01  8.2573326792219E-01
100  9.9000000000000E-01 -3.3136650531206E-01  7.4513907072953E-01
101  1.0000000000000E+00 -3.1494754242270E-01  6.6474728644398E-01
102  1.0100000000000E+00 -2.9739550863284E-01  5.8510255908395E-01
103  1.0200000000000E+00 -2.7893520628356E-01  5.0674672696072E-01
104  1.0300000000000E+00 -2.5979186783728E-01  4.3021262585607E-01
105  1.0400000000000E+00 -2.4018877169042E-01  3.5601771039156E-01
106  1.0500000000000E+00 -2.2034483728574E-01  2.8465757934536E-01
107  1.0600000000000E+00 -2.0047222991513E-01  2.1659949546277E-01
108  1.0700000000000E+00 -1.8077400628562E-01  1.5227599346080E-01
109  1.0800000000000E+00 -1.6144183205390E-01  9.2078671316808E-02
110  1.0900000000000E+00 -1.4265380210820E-01  3.6352259501967E-02
111  1.1000000000000E+00 -1.2457239337422E-01 -1.4610939484926E-02
112  1.1100000000000E+00 -1.0734257836342E-01 -6.0576153071002E-02
113  1.1200000000000E+00 -9.1090125569684E-02 -1.0137069981199E-01
114  1.1300000000000E+00 -7.5920110201046E-02 -1.3688793527718E-01
115  1.1400000000000E+00 -6.1915655227649E-02 -1.6709051911749E-01
116  1.1500000000000E+00 -4.9136926086657E-02 -1.9201291992895E-01
117  1.1600000000000E+00 -3.7620434552923E-02 -2.1176292395940E-01
118  1.1700000000000E+00 -2.7380633862803E-02 -2.2651338664065E-01
119  1.1800000000000E+00 -1.8413591690269E-02 -2.3648580258926E-01
120  1.1900000000000E+00 -1.0698377863472E-02 -2.4194510273299E-01
121  1.2000000000000E+00 -4.1980304455149E-03 -2.4319672969762E-01
122  1.2100000000000E+00  1.1392580452029E-03 -2.4058302779874E-01
123  1.2200000000000E+00  5.3787525905235E-03 -2.3447900628969E-01
124  1.2300000000000E+00  8.5976028364909E-03 -2.2528752444394E-01
125  1.2400000000000E+00  1.0883106907115E-02 -2.1343396289839E-01
126  1.2500000000000E+00  1.2330836344010E-02 -1.9936045571403E-01
127  1.2600000000000E+00  1.3042649396559E-02 -1.8351976689929E-01
128  1.2700000000000E+00  1.3124622195315E-02 -1.6636890300887E-01
129  1.2800000000000E+00  1.2684929213555E-02 -1.4836255995137E-01
130  1.2900000000000E+00  1.1831705680831E-02 -1.2994650659911E-01
131  1.3000000000000E+00  1.0670925385989E-02 -1.1155101073779E-01
132  1.3100000000000E+00  9.3043317338137E-03 -9.3584427777564E-02
133  1.3200000000000E+00  7.8274095427306E-03 -7.6426909119614E-02
134  1.3300000000000E+00  6.3276410023892E-03 -6.0425015436935E-02
135  1.3400000000000E+00  4.8791945543848E-03 -4.5874665014791E-02
136  1.3500000000000E+00  3.5385047163368E-03 -3.3006199186771E-02
137  1.3600000000000E+00  2.3659828303539E-03 -2.2056129280451E-02
138  1.3700000000000E+00  1.4073513848264E-03 -1.3207601715842E-02
139  1.3800000000000E+00  6.9168456289200E-04 -6.5841772108356E-03
140  1.3900000000000E+00  2.2997673249036E-04 -2.2380696162817E-03
141  1.4000000000000E+00  2.2745931235923E-05 -2.2865028548945E-04
142  1.4100000000000E+00 -2.4074800351455E-06  2.4715949175642E-05
143  1.4200000000000E+00  3.9182102053923E-07 -3.9556439041956E-06
144  1.43 -0.  0.
145  1.44  0.  0.
146  1.45  0.  0.
147  1.46  0.  0.
148  1.47  0.  0.
149  1.48  0.  0.
150  1.49  0.  0.
151  1.50  0.  0.
152  1.51  0.  0.
153  1.52  0.  0.
154  1.53  0.  0.
155  1.54  0.  0.
156  1.55  0.  0.
157  1.56  0.  0.
158  1.57  0.  0.
159  1.58  0.  0.
160  1.59  0.  0.
161  1.60  0.  0.
162  1.61  0.  0.
163  1.62  0.  0.
164  1.63  0.  0.
165  1.64  0.  0.
166  1.65  0.  0.
167  1.66  0.  0.
168  1.67  0.  0.
169  1.68  0.  0.
170  1.69  0.  0.
171  1.70  0.  0.
172  1.71  0.  0.
173  1.72  0.  0.
174  1.73  0.  0.
175  1.74  0.  0.
176  1.75  0.  0.
177  1.76  0.  0.
178  1.77  0.  0.
179  1.78  0.  0.
180  1.79  0.  0.
181  1.80  0.  0.
182  1.81  0.  0.
183  1.82  0.  0.
184  1.83  0.  0.
185  1.84  0.  0.
186  1.85  0.  0.
187  1.86  0.  0.
188  1.87  0.  0.
189  1.88  0.  0.
190  1.89  0.  0.
191  1.90  0.  0.
192  1.91  0.  0.
193  1.92  0.  0.
194  1.93  0.  0.
195  1.94  0.  0.
196  1.95  0.  0.
197  1.96  0.  0.
198  1.97  0.  0.
199  1.98  0.  0.
200  1.99  0.  0.
201  2.00  0.  0.
202  2.01  0.  0.
203  2.02  0.  0.
204  2.03  0.  0.
205  2.04  0.  0.
206  2.05  0.  0.
207  2.06  0.  0.
208  2.07  0.  0.
209  2.08  0.  0.
210  2.09  0.  0.
211  2.10  0.  0.
212  2.11  0.  0.
213  2.12  0.  0.
214  2.13  0.  0.
215  2.14  0.  0.
216  2.15  0.  0.
217  2.16  0.  0.
218  2.17  0.  0.
219  2.18  0.  0.
220  2.19  0.  0.
221  2.20  0.  0.
222  2.21  0.  0.
223  2.22  0.  0.
224  2.23  0.  0.
225  2.24  0.  0.
226  2.25  0.  0.
227  2.26  0.  0.
228  2.27  0.  0.
229  2.28  0.  0.
230  2.29  0.  0.
231  2.30  0.  0.
232  2.31  0.  0.
233  2.32  0.  0.
234  2.33  0.  0.
235  2.34  0.  0.
236  2.35  0.  0.
237  2.36  0.  0.
238  2.37  0.  0.
239  2.38  0.  0.
240  2.39  0.  0.
241  2.40  0.  0.
242  2.41  0.  0.
243  2.42  0.  0.
244  2.43  0.  0.
245  2.44  0.  0.
246  2.45  0.  0.
247  2.46  0.  0.
248  2.47  0.  0.
249  2.48  0.  0.
250  2.49  0.  0.
251  2.50  0.  0.
252  2.51  0.  0.
253  2.52  0.  0.
254  2.53  0.  0.
255  2.54  0.  0.
256  2.55  0.  0.
257  2.56  0.  0.
258  2.57  0.  0.
259  2.58  0.  0.
260  2.59  0.  0.
261  2.60  0.  0.
262  2.61  0.  0.
263  2.62  0.  0.
264  2.63  0.  0.
265  2.64  0.  0.
266  2.65  0.  0.
267  2.66  0.  0.
268  2.67  0.  0.
269  2.68  0.  0.
270  2.69  0.  0.
271  2.70  0.  0.
272  2.71  0.  0.
273  2.72  0.  0.
274  2.73  0.  0.
275  2.74  0.  0.
276  2.75  0.  0.
277  2.76  0.  0.
278  2.77  0.  0.
279  2.78  0.  0.
280  2.79  0.  0.
281  2.80  0.  0.
282  2.81  0.  0.
283  2.82  0.  0.
284  2.83  0.  0.
285  2.84  0.  0.
286  2.85  0.  0.
287  2.86  0.  0.
288  2.87  0.  0.
289  2.88  0.  0.
290  2.89  0.  0.
291  2.90  0.  0.
292  2.91  0.  0.
293  2.92  0.  0.
294  2.93  0.  0.
295  2.94  0.  0.
296  2.95  0.  0.
297  2.96  0.  0.
298  2.97  0.  0.
299  2.98  0.  0.
300  2.99  0.  0.
301  3.00  0.  0.
302  3.01  0.  0.
303  3.02  0.  0.
304  3.03  0.  0.
305  3.04  0.  0.
306  3.05  0.  0.
307  3.06  0.  0.
308  3.07  0.  0.
309  3.08  0.  0.
310  3.09  0.  0.
311  3.10  0.  0.
312  3.11  0.  0.
313  3.12  0.  0.
314  3.13  0.  0.
315  3.14  0.  0.
316  3.15  0.  0.
317  3.16  0.  0.
318  3.17  0.  0.
319  3.18  0.  0.
320  3.19  0.  0.
321  3.20  0.  0.
322  3.21  0.  0.
323  3.22  0.  0.
324  3.23  0.  0.
325  3.24  0.  0.
326  3.25  0.  0.
327  3.26  0.  0.
328  3.27  0.  0.
329  3.28  0.  0.
330  3.29  0.  0.
331  3.30  0.  0.
332  3.31  0.  0.
333  3.32  0.  0.
334  3.33  0.  0.
335  3.34  0.  0.
336  3.35  0.  0.
337  3.36  0.  0.
338  3.37  0.  0.
339  3.38  0.  0.
340  3.39  0.  0.
341  3.40  0.  0.
342  3.41  0.  0.
343  3.42  0.  0.
344  3.43  0.  0.
345  3.44  0.  0.
346  3.45  0.  0.
347  3.46  0.  0.
348  3.47  0.  0.
349  3.48  0.  0.
350  3.49  0.  0.
351  3.50  0.  0.
352  3.51  0.  0.
353  3.52  0.  0.
354  3.53  0.  0.
355  3.54  0.  0.
356  3.55  0.  0.
357  3.56  0.  0.
358  3.57  0.  0.
359  3.58  0.  0.
360  3.59  0.  0.
361  3.60  0.  0.
362  3.61  0.  0.
363  3.62  0.  0.
364  3.63  0.  0.
365  3.64  0.  0.
366  3.65  0.  0.
367  3.66  0.  0.
368  3.67  0.  0.
369  3.68  0.  0.
370  3.69  0.  0.
371  3.70  0.  0.
372  3.71  0.  0.
373  3.72  0.  0.
374  3.73  0.  0.
375  3.74  0.  0.
376  3.75  0.  0.
377  3.76  0.  0.
378  3.77  0.  0.
379  3.78  0.  0.
380  3.79  0.  0.
381  3.80  0.  0.
382  3.81  0.  0.
383  3.82  0.  0.
384  3.83  0.  0.
385  3.84  0.  0.
386  3.85  0.  0.
387  3.86  0.  0.
388  3.87  0.  0.
389  3.88  0.  0.
390  3.89  0.  0.
391  3.90  0.  0.
392  3.91  0.  0.
393  3.92  0.  0.
394  3.93  0.  0.
395  3.94  0.  0.
396  3.95  0.  0.
397  3.96  0.  0.
398  3.97  0.  0.
399  3.98  0.  0.
400  3.99  0.  0.
401  4.00  0.  0.
402  4.01  0.  0.
403  4.02  0.  0.
404  4.03  0.  0.
405  4.04  0.  0.
406  4.05  0.  0.
407  4.06  0.  0.
408  4.07  0.  0.
409  4.08  0.  0.
410  4.09  0.  0.
411  4.10  0.  0.
412  4.11  0.  0.
413  4.12  0.  0.
414  4.13  0.  0.
415  4.14  0.  0.
416  4.15  0.  0.
417  4.16  0.  0.
418  4.17  0.  0.
419  4.18  0.  0.
420  4.19  0.  0.
421  4.20  0.  0.
422  4.21  0.  0.
423  4.22  0.  0.
424  4.23  0.  0.
425  4.24  0.  0.
426  4.25  0.  0.
427  4.26  0.  0.
428  4.27  0.  0.
429  4.28  0.  0.
430  4.29  0.  0.
431  4.30  0.  0.
432  4.31  0.  0.
433  4.32  0.  0.
434  4.33  0.  0.
435  4.34  0.  0.
436  4.35  0.  0.
437  4.36  0.  0.
438  4.37  0.  0.
439  4.38  0.  0.
440  4.39  0.  0.
441  4.40  0.  0.
442  4.41  0.  0.
443  4.42  0.  0.
444  4.43  0.  0.
445  4.44  0.  0.
446  4.45  0.  0.
447  4.46  0.  0.
448  4.47  0.  0.
449  4.48  0.  0.
450  4.49  0.  0.
451  4.50  0.  0.
452  4.51  0.  0.
453  4.52  0.  0.
454  4.53  0.  0.
455  4.54  0.  0.
456  4.55  0.  0.
457  4.56  0.  0.
458  4.57  0.  0.
459  4.58  0.  0.
460  4.59  0.  0.
461  4.60  0.  0.
462  4.61  0.  0.
463  4.62  0.  0.
464  4.63  0.  0.
465  4.64  0.  0.
466  4.65  0.  0.
467  4.66  0.  0.
468  4.67  0.  0.
469  4.68  0.  0.
470  4.69  0.  0.
471  4.70  0.  0.
472  4.71  0.  0.
473  4.72  0.  0.
474  4.73  0.  0.
475  4.74  0.  0.
476  4.75  0.  0.
477  4.76  0.  0.
478  4.77  0.  0.
479  4.78  0.  0.
480  4.79  0.  0.
481  4.80  0.  0.
482  4.81  0.  0.
483  4.82  0.  0.
484  4.83  0.  0.
485  4.84  0.  0.
486  4.85  0.  0.
487  4.86  0.  0.
488  4.87  0.  0.
489  4.88  0.  0.
490  4.89  0.  0.
491  4.90  0.  0.
492  4.91  0.  0.
493  4.92  0.  0.
494  4.93  0.  0.
495  4.94  0.  0.
496  4.95  0.  0.
497  4.96  0.  0.
498  4.97  0.  0.
499  4.98  0.  0.
500  4.99  0.  0.
501  5.00  0.  0.
502  5.01  0.  0.
503  5.02  0.  0.
504  5.03  0.  0.
505  5.04  0.  0.
506  5.05  0.  0.
507  5.06  0.  0.
508  5.07  0.  0.
509  5.08  0.  0.
510  5.09  0.  0.
511  5.10  0.  0.
512  5.11  0.  0.
513  5.12  0.  0.
514  5.13  0.  0.
515  5.14  0.  0.
516  5.15  0.  0.
517  5.16  0.  0.
518  5.17  0.  0.
519  5.18  0.  0.
520  5.19  0.  0.
521  5.20  0.  0.
522  5.21  0.  0.
523  5.22  0.  0.
524  5.23  0.  0.
525  5.24  0.  0.
526  5.25  0.  0.
527  5.26  0.  0.
528  5.27  0.  0.
529  5.28  0.  0.
530  5.29  0.  0.
531  5.30  0.  0.
532  5.31  0.  0.
533  5.32  0.  0.
534  5.33  0.  0.
535  5.34  0.  0.
536  5.35  0.  0.
537  5.36  0.  0.
538  5.37  0.  0.
539  5.38  0.  0.
540  5.39  0.  0.
541  5.40  0.  0.
542  5.41  0.  0.
543  5.42  0.  0.
544  5.43  0.  0.
545  5.44  0.  0.
546  5.45  0.  0.
547  5.46  0.  0.
548  5.47  0.  0.
549  5.48  0.  0.
550  5.49  0.  0.
551  5.50  0.  0.
552  5.51  0.  0.
553  5.52  0.  0.
554  5.53  0.  0.
555  5.54  0.  0.
556  5.55  0.  0.
557  5.56  0.  0.
558  5.57  0.  0.
559  5.58  0.  0.
560  5.59  0.  0.
561  5.60  0.  0.
562  5.61  0.  0.
563  5.62  0.  0.
564  5.63  0.  0.
565  5.64  0.  0.
566  5.65  0.  0.
567  5.66  0.  0.
568  5.67  0.  0.
569  5.68  0.  0.
570  5.69  0.  0.
571  5.70  0.  0.
572  5.71  0.  0.
573  5.72  0.  0.
574  5.73  0.  0.
575  5.74  0.  0.
576  5.75  0.  0.
577  5.76  0.  0.
578  5.77  0.  0.
579  5.78  0.  0.
580  5.79  0.  0.
581  5.80  0.  0.
582  5.81  0.  0.
583  5.82  0.  0.
584  5.83  0.  0.
585  5.84  0.  0.
586  5.85  0.  0.
587  5.86  0.  0.
588  5.87  0.  0.
589  5.88  0.  0.
590  5.89  0.  0.
591  5.90  0.  0.
592  5.91  0.  0.
593  5.92  0.  0.
594  5.93  0.  0.
595  5.94  0.  0.
596  5.95  0.  0.
597  5.96  0.  0.
598  5.97  0.  0.
599  5.98  0.  0.
600  5.99  0.  0.
1                         1.7261768199684E+01  2.1086924425154E+00
1  0.0000000000000E+00 -3.5922727431581E-09  9.8438752982322E-09
2  1.0000000000000E-02  1.2888822129802E-03 -6.0788248222175E-04
3  2.0000000000000E-02  5.1550264112362E-03 -2.4348897993350E-03
4  3.0000000000000E-02  1.1596841104169E-02 -5.4908868016918E-03
5  4.0000000000000E-02  2.0611395459498E-02 -9.7916052381941E-03
6  5.0000000000000E-02  3.2194009476042E-02 -1.5357600794282E-02
7  6.0000000000000E-02  4.6337695422513E-02 -2.2212835435566E-02
8  7.0000000000000E-02  6.3032465294760E-02 -3.0382926185044E-02
9  8.0000000000000E-02  8.2264522636207E-02 -3.9893111305711E-02
10  9.0000000000000E-02  1.0401536021270E-01 -5.0765993342768E-02
11  1.0000000000000E-01  1.2826078765726E-01 -6.3019125370923E-02
12  1.1000000000000E-01  1.5496991523899E-01 -7.6662511906030E-02
13  1.2000000000000E-01  1.8410412131480E-01 -9.1696099134441E-02
14  1.3000000000000E-01  2.1561603175878E-01 -1.0810733029812E-01
15  1.4000000000000E-01  2.4944853971573E-01 -1.2586884120984E-01
16  1.5000000000000E-01  2.8553389339236E-01 -1.4493636797730E-01
17  1.6000000000000E-01  3.2379287829836E-01 -1.6524693415708E-01
18  1.7000000000000E-01  3.6413411841453E-01 -1.8671737786132E-01
19  1.8000000000000E-01  4.0645351824464E-01 -2.0924327097338E-01
20  1.9000000000000E-01  4.5063386466591E-01 -2.3269827281016E-01
21  2.0000000000000E-01  4.9654460400644E-01 -2.5693394955486E-01
22  2.1000000000000E-01  5.4404180593469E-01 -2.8178007886469E-01
23  2.2000000000000E-01  5.9296832164184E-01 -3.0704544654950E-01
24  2.3000000000000E-01  6.4315413953682E-01 -3.3251912945264E-01
25  2.4000000000000E-01  6.9441693736165E-01 -3.5797224598806E-01
26  2.5000000000000E-01  7.4656282537990E-01 -3.8316014354037E-01
27  2.6000000000000E-01  7.9938727119967E-01 -4.0782498045065E-01
28  2.7000000000000E-01  8.5267619296606E-01 -4.3169864990719E-01
29  2.8000000000000E-01  9.0620720419180E-01 -4.5450598402429E-01
30  2.9000000000000E-01  9.5975099047263E-01 -4.7596816897986E-01
31  3.0000000000000E-01  1.0130727958309E+00 -4.9580629650459E-01
32  3.1000000000000E-01  1.0659339945048E+00 -5.1374497343664E-01
33  3.2000000000000E-01  1.1180937226956E+00 -5.2951590958617E-01
34  3.3000000000000E-01  1.1693105441310E+00 -5.4286140484842E-01
35  3.4000000000000E-01  1.2193441233053E+00 -5.5353765935492E-01
36  3.5000000000000E-01  1.2679568809101E+00 -5.6131783539732E-01
37  3.6000000000000E-01  1.3149156072515E+00 -5.6599480677029E-01
38  3.7000000000000E-01  1.3599930113068E+00 -5.6738353988057E-01
39  3.8000000000000E-01  1.4029691854632E+00 -5.6532306122552E-01
40  3.9000000000000E-01  1.4436329688120E+00 -5.5967797737649E-01
41  4.0000000000000E-01  1.4817831950730E+00 -5.5033952609346E-01
42  4.1000000000000E-01  1.5172298146902E+00 -5.3722615029580E-01
43  4.2000000000000E-01  1.5497948842698E+00 -5.2028359994986E-01
44  4.3000000000000E-01  1.5793134202171E+00 -4.9948458012218E-01
45  4.4000000000000E-01  1.6056341170599E+00 -4.7482797610385E-01
46  4.5000000000000E-01  1.6286199344092E+00 -4.4633769825939E-01
47  4.6000000000000E-01  1.6481485597054E+00 -4.1406119973861E-01
48  4.7000000000000E-01  1.6641127567247E+00 -3.7806772908596E-01
49  4.8000000000000E-01  1.6764206121974E+00 -3.3844638680498E-01
50  4.9000000000000E-01  1.6849956947357E+00 -2.9530405984942E-01
51  5.0000000000000E-01  1.6897771415319E+00 -2.4876331064018E-01
52  5.1000000000000E-01  1.6907196889219E+00 -1.9896029743191E-01
53  5.2000000000000E-01  1.6877936628986E+00 -1.4604280062791E-01
54  5.3000000000000E-01  1.6809849449940E+00 -9.0168424991546E-02
55  5.4000000000000E-01  1.6702949276544E+00 -3.1503040719058E-02
56  5.5000000000000E-01  1.6557404713435E+00  2.9780482808632E-02
57  5.6000000000000E-01  1.6373538731778E+00  9.3503207859392E-02
58  5.7000000000000E-01  1.6151828540151E+00  1.5948069375048E-01
59  5.8000000000000E-01  1.5892905676547E+00  2.2752318080336E-01
60  5.9000000000000E-01  1.5597556322863E+00  2.9743539173368E-01
61  6.0000000000000E-01  1.5266721806565E+00  3.6901596470668E-01
62  6.1000000000000E-01  1.4901499217247E+00  4.4205654763312E-01
63  6.2000000000000E-01  1.4503142029929E+00  5.1634059815222E-01
64  6.3000000000000E-01  1.4073060593405E+00  5.9164194767200E-01
65  6.4000000000000E-01  1.3612822311949E+00  6.6772320036223E-01
66  6.5000000000000E-01  1.3124151323577E+00  7.4433404868795E-01
67  6.6000000000000E-01  1.2608927458690E+00  8.2120959554891E-01
68  6.7000000000000E-01  1.2069184250444E+00  8.9806877901450E-01
69  6.8000000000000E-01  1.1507105763199E+00  9.7461299874688E-01
70  6.9000000000000E-01  1.0925022008552E+00  1.0505250432881E+00
71  7.0000000000000E-01  1.0325402730006E+00  1.1254684143364E+00
72  7.1000000000000E-01  9.7108493574729E-01  1.1990871379209E+00
73  7.2000000000000E-01  9.0840849612077E-01  1.2710061430677E+00
74  7.3000000000000E-01  8.4479420712299E-01  1.3408322762799E+00
75  7.4000000000000E-01  7.8053482719219E-01  1.4081560051775E+00
76  7.5000000000000E-01  7.1593095315549E-01  1.4725538472811E+00
77  7.6000000000000E-01  6.5128912817533E-01  1.5335915405783E+00
78  7.7000000000000E-01  5.8691973210863E-01  1.5908279516658E+00
79  7.8000000000000E-01  5.2313466785711E-01  1.6438196954323E+00
80  7.9000000000000E-01  4.6024486352624E-01  1.6921264180162E+00
81  8.0000000000000E-01  3.9855761635997E-01  1.7353166727508E+00
82  8.1000000000000E-01  3.3837381030301E-01  1.7729742975963E+00
83  8.2000000000000E-01  2.7998504449041E-01  1.8047051827919E+00
84  8.3000000000000E-01  2.2367071480637E-01  1.8301442997114E+00
85  8.4000000000000E-01  1.6969509473468E-01  1.8489628467524E+00
86  8.5000000000000E-01  1.1830446489912E-01  1.8608753560163E+00
87  8.6000000000000E-01  6.9724342841961E-02  1.8656465959901E+00
88  8.7000000000000E-01  2.4156865612545E-02  1.8630981007717E+00
89  8.8000000000000E-01 -1.8221622435005E-02  1.8531141558365E+00
90  8.9000000000000E-01 -5.7262725649578E-02  1.8356470740929E+00
91  9.0000000000000E-01 -9.2847848574854E-02  1.8107216040464E+00
92  9.1000000000000E-01 -1.2488969849688E-01  1.7784383242255E+00
93  9.2000000000000E-01 -1.5333339968702E-01  1.7389758944236E+00
94  9.3000000000000E-01 -1.7815718613470E-01  1.6925920544851E+00
95  9.4000000000000E-01 -1.9937264668872E-01  1.6396232849008E+00
96  9.5000000000000E-01 -2.1702450447403E-01  1.5804830698733E+00
97  9.6000000000000E-01 -2.3118992104984E-01  1.5156587321707E+00
98  9.7000000000000E-01 -2.4197732483311E-01  1.4457068393391E+00
99  9.8000000000000E-01 -2.4952477262146E-01  1.3712472119807E+00
100  9.9000000000000E-01 -2.5399786238643E-01  1.2929555960308E+00
101  1.0000000000000E+00 -2.5558722464964E-01  1.2115550915318E+00
102  1.0100000000000E+00 -2.5450562847155E-01  1.1278064595030E+00
103  1.0200000000000E+00 -2.5098474615980E-01  1.0424974553928E+00
104  1.0300000000000E+00 -2.4527162802510E-01  9.5643136154355E-01
105  1.0400000000000E+00 -2.3762494469333E-01  8.7041491144521E-01
106  1.0500000000000E+00 -2.2831105945647E-01  7.8524581474588E-01
107  1.0600000000000E+00 -2.1759999676166E-01  7.0170010350049E-01
108  1.0700000000000E+00 -2.0576137510294E-01  6.2051952665599E-01
109  1.0800000000000E+00 -1.9306037320704E-01  5.4239922099582E-01
110  1.0900000000000E+00 -1.7975379747082E-01  4.6797588263743E-01
111  1.1000000000000E+00 -1.6608631609783E-01  3.9781665363319E-01
112  1.1100000000000E+00 -1.5228692136438E-01  3.3240892353460E-01
113  1.1200000000000E+00 -1.3856567596701E-01  2.7215122609418E-01
114  1.1300000000000E+00 -1.2511079262157E-01  2.1734538716638E-01
115  1.1400000000000E+00 -1.1208608769264E-01  1.6819004944260E-01
116  1.1500000000000E+00 -9.9628847646109E-02  1.2477570694057E-01
117  1.1600000000000E+00 -8.7848172969997E-02  8.7081551066894E-02
118  1.1700000000000E+00 -7.6825831406949E-02  5.4985266351437E-02
119  1.1800000000000E+00 -6.6619695428032E-02  2.8284613560488E-02
120  1.1900000000000E+00 -5.7265383579668E-02  6.7063231862934E-03
121  1.2000000000000E+00 -4.8777711072026E-02 -1.0087229445085E-02
122  1.2100000000000E+00 -4.1152536781206E-02 -2.2490021596363E-02
123  1.2200000000000E+00 -3.4368959122646E-02 -3.0943232150037E-02
124  1.2300000000000E+00 -2.8391810350321E-02 -3.5925120521731E-02
125  1.2400000000000E+00 -2.3174391136601E-02 -3.7940142484175E-02
126  1.2500000000000E+00 -1.8661381877724E-02 -3.7507528269442E-02
127  1.2600000000000E+00 -1.4791863093018E-02 -3.5149562268760E-02
128  1.2700000000000E+00 -1.1502385480302E-02 -3.1379785689935E-02
129  1.2800000000000E+00 -8.7299427289802E-03 -2.6691556616029E-02
130  1.2900000000000E+00 -6.4165434846265E-03 -2.1542824741374E-02
131  1.3000000000000E+00 -4.5251867980894E-03 -1.6311985576059E-02
132  1.3100000000000E+00 -3.0081566883652E-03 -1.1374179862317E-02
133  1.3200000000000E+00 -1.8215180898970E-03 -7.0634343099043E-03
134  1.3300000000000E+00 -9.3620359280986E-04 -3.6424556160446E-03
135  1.3400000000000E+00 -3.3870708982964E-04 -1.2945039511277E-03
136  1.3500000000000E+00 -4.0102989922111E-05 -1.4732454189998E-04
137  1.3600000000000E+00  3.8631186653955E-06  1.3853485531632E-05
138  1.3700000000000E+00 -5.1659456456613E-07 -1.8906742333644E-06
139  1.38 -0. -0.
140  1.39  0.  0.
141  1.40  0.  0.
142  1.41  0.  0.
143  1.42  0.  0.
144  1.43  0.  0.
145  1.44  0.  0.
146  1.45  0.  0.
147  1.46  0.  0.
148  1.47  0.  0.
149  1.48  0.  0.
150  1.49  0.  0.
151  1.50  0.  0.
152  1.51  0.  0.
153  1.52  0.  0.
154  1.53  0.  0.
155  1.54  0.  0.
156  1.55  0.  0.
157  1.56  0.  0.
158  1.57  0.  0.
159  1.58  0.  0.
160  1.59  0.  0.
161  1.60  0.  0.
162  1.61  0.  0.
163  1.62  0.  0.
164  1.63  0.  0.
165  1.64  0.  0.
166  1.65  0.  0.
167  1.66  0.  0.
168  1.67  0.  0.
169  1.68  0.  0.
170  1.69  0.  0.
171  1.70  0.  0.
172  1.71  0.  0.
173  1.72  0.  0.
174  1.73  0.  0.
175  1.74  0.  0.
176  1.75  0.  0.
177  1.76  0.  0.
178  1.77  0.  0.
179  1.78  0.  0.
180  1.79  0.  0.
181  1.80  0.  0.
182  1.81  0.  0.
183  1.82  0.  0.
184  1.83  0.  0.
185  1.84  0.  0.
186  1.85  0.  0.
187  1.86  0.  0.
188  1.87  0.  0.
189  1.88  0.  0.
190  1.89  0.  0.
191  1.90  0.  0.
192  1.91  0.  0.
193  1.92  0.  0.
194  1.93  0.  0.
195  1.94  0.  0.
196  1.95  0.  0.
197  1.96  0.  0.
198  1.97  0.  0.
199  1.98  0.  0.
200  1.99  0.  0.
201  2.00  0.  0.
202  2.01  0.  0.
203  2.02  0.  0.
204  2.03  0.  0.
205  2.04  0.  0.
206  2.05  0.  0.
207  2.06  0.  0.
208  2.07  0.  0.
209  2.08  0.  0.
210  2.09  0.  0.
211  2.10  0.  0.
212  2.11  0.  0.
213  2.12  0.  0.
214  2.13  0.  0.
215  2.14  0.  0.
216  2.15  0.  0.
217  2.16  0.  0.
218  2.17  0.  0.
219  2.18  0.  0.
220  2.19  0.  0.
221  2.20  0.  0.
222  2.21  0.  0.
223  2.22  0.  0.
224  2.23  0.  0.
225  2.24  0.  0.
226  2.25  0.  0.
227  2.26  0.  0.
228  2.27  0.  0.
229  2.28  0.  0.
230  2.29  0.  0.
231  2.30  0.  0.
232  2.31  0.  0.
233  2.32  0.  0.
234  2.33  0.  0.
235  2.34  0.  0.
236  2.35  0.  0.
237  2.36  0.  0.
238  2.37  0.  0.
239  2.38  0.  0.
240  2.39  0.  0.
241  2.40  0.  0.
242  2.41  0.  0.
243  2.42  0.  0.
244  2.43  0.  0.
245  2.44  0.  0.
246  2.45  0.  0.
247  2.46  0.  0.
248  2.47  0.  0.
249  2.48  0.  0.
250  2.49  0.  0.
251  2.50  0.  0.
252  2.51  0.  0.
253  2.52  0.  0.
254  2.53  0.  0.
255  2.54  0.  0.
256  2.55  0.  0.
257  2.56  0.  0.
258  2.57  0.  0.
259  2.58  0.  0.
260  2.59  0.  0.
261  2.60  0.  0.
262  2.61  0.  0.
263  2.62  0.  0.
264  2.63  0.  0.
265  2.64  0.  0.
266  2.65  0.  0.
267  2.66  0.  0.
268  2.67  0.  0.
269  2.68  0.  0.
270  2.69  0.  0.
271  2.70  0.  0.
272  2.71  0.  0.
273  2.72  0.  0.
274  2.73  0.  0.
275  2.74  0.  0.
276  2.75  0.  0.
277  2.76  0.  0.
278  2.77  0.  0.
279  2.78  0.  0.
280  2.79  0.  0.
281  2.80  0.  0.
282  2.81  0.  0.
283  2.82  0.  0.
284  2.83  0.  0.
285  2.84  0.  0.
286  2.85  0.  0.
287  2.86  0.  0.
288  2.87  0.  0.