Ub    ONCVPSP-4.0.1  r_core=   1.50269   1.50269   1.50269
120.0000     28.0000      230612    zatom,zion,pspd
8      11   2     4   600     0    pspcod,pspxc,lmax,lloc,mmax,r2well
5.99000000  5.00000000  0.00000000    rchrg fchrg qchrg
3     3     3     0    nproj
3     1           extension_switch
3     3     0    nprojso
0                         2.0518409791891E+01 -3.4527145969244E+00 -2.5945365362595E-01
1  0.0000000000000E+00 -1.7817107789142E-09 -6.2598490280230E-10  2.5737343922749E-08
2  1.0000000000000E-02  1.3007283445006E-01  1.7435496419784E-02 -1.2072792619015E-01
3  2.0000000000000E-02  2.5949733182512E-01  3.4872923575912E-02 -2.3991425714608E-01
4  3.0000000000000E-02  3.8762948023276E-01  5.2314539443110E-02 -3.5603893913825E-01
5  4.0000000000000E-02  5.1383387984177E-01  6.9763248437844E-02 -4.6762464708824E-01
6  5.0000000000000E-02  6.3748795361694E-01  8.7222904716880E-02 -5.7325726979080E-01
7  6.0000000000000E-02  7.5798604499078E-01  1.0469859202825E-01 -6.7160535908440E-01
8  7.0000000000000E-02  8.7474336691514E-01  1.2219687305349E-01 -7.6143822864315E-01
9  8.0000000000000E-02  9.8719976851734E-01  1.3972600180600E-01 -8.4164241380051E-01
10  9.0000000000000E-02  1.0948232877585E+00  1.5729609340735E-01 -9.1123623494584E-01
11  1.0000000000000E-01  1.1971134610195E+00  1.7491924643495E-01 -9.6938224289329E-01
12  1.1000000000000E-01  1.2936043633862E+00  1.9260961400256E-01 -1.0153973644579E+00
13  1.2000000000000E-01  1.3838673565187E+00  2.1038342077836E-01 -1.0487606094363E+00
14  1.3000000000000E-01  1.4675135243307E+00  2.2825892424232E-01 -1.0691182453886E+00
15  1.4000000000000E-01  1.5441957802110E+00  2.4625631961218E-01 -1.0762863931039E+00
16  1.5000000000000E-01  1.6136106331503E+00  2.6439758900119E-01 -1.0702510424409E+00
17  1.6000000000000E-01  1.6754996038239E+00  2.8270629648844E-01 -1.0511655344125E+00
18  1.7000000000000E-01  1.7296502853872E+00  3.0120733186006E-01 -1.0193455999780E+00
19  1.8000000000000E-01  1.7758970473977E+00  3.1992660679537E-01 -9.7526208813510E-01
20  1.9000000000000E-01  1.8141213848456E+00  3.3889070820570E-01 -9.1953155471893E-01
21  2.0000000000000E-01  1.8442519177043E+00  3.5812651426656E-01 -8.5290491807943E-01
22  2.1000000000000E-01  1.8662640496549E+00  3.7766077939988E-01 -7.7625441785253E-01
23  2.2000000000000E-01  1.8801792976613E+00  3.9751969504938E-01 -6.9055913782880E-01
24  2.3000000000000E-01  1.8860643068426E+00  4.1772843353751E-01 -5.9688937303172E-01
25  2.4000000000000E-01  1.8840295675672E+00  4.3831068259037E-01 -4.9639013424896E-01
26  2.5000000000000E-01  1.8742278538755E+00  4.5928817826356E-01 -3.9026409026063E-01
27  2.6000000000000E-01  1.8568524041888E+00  4.8068024399568E-01 -2.7975424886363E-01
28  2.7000000000000E-01  1.8321348667899E+00  5.0250334336122E-01 -1.6612667259427E-01
29  2.8000000000000E-01  1.8003430337458E+00  5.2477065379608E-01 -5.0653514082118E-02
30  2.9000000000000E-01  1.7617783878057E+00  5.4749166813539E-01  6.5403360436024E-02
31  3.0000000000000E-01  1.7167734873336E+00  5.7067183024826E-01  1.8080791224492E-01
32  3.1000000000000E-01  1.6656892145655E+00  5.9431221038944E-01  2.9436441441198E-01
33  3.2000000000000E-01  1.6089119124080E+00  6.1840922513226E-01  4.0493068703527E-01
34  3.3000000000000E-01  1.5468504346601E+00  6.4295440591659E-01  5.1142992363701E-01
35  3.4000000000000E-01  1.4799331339587E+00  6.6793421936146E-01  6.1286098331372E-01
36  3.5000000000000E-01  1.4086048109545E+00  6.9332994157196E-01  7.0830705903387E-01
37  3.6000000000000E-01  1.3333236472474E+00  7.1911758773686E-01  7.9694266873231E-01
38  3.7000000000000E-01  1.2545581434767E+00  7.4526789738578E-01  8.7803895178446E-01
39  3.8000000000000E-01  1.1727840827161E+00  7.7174637477244E-01  9.5096728822119E-01
40  3.9000000000000E-01  1.0884815379823E+00  7.9851338299303E-01  1.0152012909331E+00
41  4.0000000000000E-01  1.0021319412688E+00  8.2552428965139E-01  1.0703172514066E+00
42  4.1000000000000E-01  9.1421523009588E-01  8.5272966116205E-01  1.1159931466160E+00
43  4.2000000000000E-01  8.2520708613622E-01  8.8007550215083E-01  1.1520063380438E+00
44  4.3000000000000E-01  7.3557627907045E-01  9.0750353587982E-01  1.1782301129891E+00
45  4.4000000000000E-01  6.4578212746266E-01  9.3495152119947E-01  1.1946292330304E+00
46  4.5000000000000E-01  5.5627208713604E-01  9.6235360121765E-01  1.2012546645515E+00
47  4.6000000000000E-01  4.6747947629245E-01  9.8964067867757E-01  1.1982376715132E+00
48  4.7000000000000E-01  3.7982134546074E-01  1.0167408129528E+00  1.1857834512199E+00
49  4.8000000000000E-01  2.9369649928423E-01  1.0435796335939E+00  1.1641644898246E+00
50  4.9000000000000E-01  2.0948367616861E-01  1.0700807654911E+00  1.1337138060042E+00
51  5.0000000000000E-01  1.2753989090506E-01  1.0961662609472E+00  1.0948182389900E+00
52  5.1000000000000E-01  4.8198944554598E-02  1.1217570342622E+00  1.0479119213927E+00
53  5.2000000000000E-01 -2.8229894880570E-02  1.1467732948218E+00  9.9347005856680E-01
54  5.3000000000000E-01 -1.0146303817393E-01  1.1711349751220E+00  9.3200311518117E-01
55  5.4000000000000E-01 -1.7124354481134E-01  1.1947621506518E+00  8.6405148688488E-01
56  5.5000000000000E-01 -2.3734191560190E-01  1.2175754490735E+00  7.9018071109183E-01
57  5.6000000000000E-01 -2.9955670702354E-01  1.2394964466660E+00  7.1097724670252E-01
58  5.7000000000000E-01 -3.5771496696577E-01  1.2604480505266E+00  6.2704482865604E-01
59  5.8000000000000E-01 -4.1167249214504E-01  1.2803548655275E+00  5.3900138026910E-01
60  5.9000000000000E-01 -4.6131390810407E-01  1.2991435455032E+00  4.4747644494828E-01
61  6.0000000000000E-01 -5.0655257337776E-01  1.3167431285671E+00  3.5310907966564E-01
62  6.1000000000000E-01 -5.4733031012200E-01  1.3330853568298E+00  2.5654613602456E-01
63  6.2000000000000E-01 -5.8361696426796E-01  1.3481049810915E+00  1.5844084127770E-01
64  6.3000000000000E-01 -6.1540979908293E-01  1.3617400513129E+00  5.9451581584903E-02
65  6.4000000000000E-01 -6.4273272689486E-01  1.3739321938174E+00 -3.9759216609592E-02
66  6.5000000000000E-01 -6.6563538466573E-01  1.3846268762441E+00 -1.3852621383871E-01
67  6.6000000000000E-01 -6.8419206007587E-01  1.3937736612608E+00 -2.3618239907166E-01
68  6.7000000000000E-01 -6.9850047579706E-01  1.4013264499486E+00 -3.3206054600530E-01
69  6.8000000000000E-01 -7.0868044067706E-01  1.4072437156039E+00 -4.2549497628864E-01
70  6.9000000000000E-01 -7.1487237761611E-01  1.4114887284668E+00 -5.1582370996169E-01
71  7.0000000000000E-01 -7.1723573897188E-01  1.4140297715884E+00 -6.0239106859031E-01
72  7.1000000000000E-01 -7.1594732136347E-01  1.4148403477060E+00 -6.8455077926483E-01
73  7.2000000000000E-01 -7.1119949273836E-01  1.4138993766175E+00 -7.6166960827788E-01
74  7.3000000000000E-01 -7.0319834549617E-01  1.4111913821382E+00 -8.3313153246811E-01
75  7.4000000000000E-01 -6.9216179030899E-01  1.4067066673192E+00 -8.9834243451649E-01
76  7.5000000000000E-01 -6.7831760601829E-01  1.4004414761948E+00 -9.5673528648170E-01
77  7.6000000000000E-01 -6.6190146160064E-01  1.3923981399455E+00 -1.0077757642522E+00
78  7.7000000000000E-01 -6.4315492666142E-01  1.3825852050117E+00 -1.0509682149171E+00
79  7.8000000000000E-01 -6.2232348721717E-01  1.3710175403926E+00 -1.0858618799711E+00
80  7.9000000000000E-01 -5.9965458364933E-01  1.3577164211239E+00 -1.1120572602809E+00
81  8.0000000000000E-01 -5.7539568764194E-01  1.3427095847579E+00 -1.1292124943778E+00
82  8.1000000000000E-01 -5.4979243464349E-01  1.3260312575842E+00 -1.1370496103296E+00
83  8.2000000000000E-01 -5.2308682791379E-01  1.3077221473266E+00 -1.1353605035518E+00
84  8.3000000000000E-01 -4.9551552952856E-01  1.2878293991474E+00 -1.1240124887073E+00
85  8.4000000000000E-01 -4.6730825281866E-01  1.2664065119792E+00 -1.1029532735209E+00
86  8.5000000000000E-01 -4.3868626962618E-01  1.2435132124904E+00 -1.0722152059547E+00
87  8.6000000000000E-01 -4.0986104447400E-01  1.2192152843694E+00 -1.0319186537831E+00
88  8.7000000000000E-01 -3.8103300628607E-01  1.1935843510832E+00 -9.8227438701288E-01
89  8.8000000000000E-01 -3.5239046667960E-01  1.1666976108164E+00 -9.2358484865089E-01
90  8.9000000000000E-01 -3.2410869209941E-01  1.1386375229209E+00 -8.5624421770380E-01
91  9.0000000000000E-01 -2.9634913520592E-01  1.1094914458932E+00 -7.8073718962077E-01
92  9.1000000000000E-01 -2.6925882898675E-01  1.0793512276302E+00 -6.9763642322424E-01
93  9.2000000000000E-01 -2.4296994507003E-01  1.0483127494841E+00 -6.0759862895496E-01
94  9.3000000000000E-01 -2.1759951570561E-01  1.0164754264214E+00 -5.1135930045182E-01
95  9.4000000000000E-01 -1.9324931688013E-01  9.8394166638325E-01 -4.0972611945124E-01
96  9.5000000000000E-01 -1.7000590807840E-01  9.5081629271487E-01 -3.0357109209648E-01
97  9.6000000000000E-01 -1.4794082232526E-01  9.1720593427451E-01 -1.9382150236813E-01
98  9.7000000000000E-01 -1.2711089837402E-01  8.8321838852532E-01 -8.1449794807378E-02
99  9.8000000000000E-01 -1.0755874527597E-01  8.4896196354103E-01  3.2537476581695E-02
100  9.9000000000000E-01 -8.9313328098845E-02  8.1454480540548E-01  1.4711147398728E-01
101  1.0000000000000E+00 -7.2390662284370E-02  7.8007421794245E-01  2.6123349723635E-01
102  1.0100000000000E+00 -5.6794603065635E-02  7.4565598206433E-01  3.7386780609523E-01
103  1.0200000000000E+00 -4.2517715522664E-02  7.1139368226700E-01  4.8399463605740E-01
104  1.0300000000000E+00 -2.9542210249397E-02  6.7738804791617E-01  5.9062319185857E-01
105  1.0400000000000E+00 -1.7840929247215E-02  6.4373631696318E-01  6.9280439885114E-01
106  1.0500000000000E+00 -7.3783665513519E-03  6.1053162959260E-01  7.8964319264955E-01
107  1.0600000000000E+00  1.8882917637380E-03  5.7786245904186E-01  8.8031013218748E-01
108  1.0700000000000E+00  1.0008123171645E-02  5.4581208644531E-01  9.6405213042568E-01
109  1.0800000000000E+00  1.7035434232138E-02  5.1445812605003E-01  1.0402021102450E+00
110  1.0900000000000E+00  2.3028749606065E-02  4.8387210653241E-01  1.1081874103575E+00
111  1.1000000000000E+00  2.8049837044025E-02  4.5411911342725E-01  1.1675367869496E+00
112  1.1100000000000E+00  3.2162779638828E-02  4.2525749687362E-01  1.2178858809079E+00
113  1.1200000000000E+00  3.5433105273243E-02  3.9733864799913E-01  1.2589810473541E+00
114  1.1300000000000E+00  3.7926981714060E-02  3.7040684632318E-01  1.2906814732651E+00
115  1.1400000000000E+00  3.9710484224005E-02  3.4449917957246E-01  1.3129595397208E+00
116  1.1500000000000E+00  4.0848940925142E-02  3.1964553629160E-01  1.3258994170166E+00
117  1.1600000000000E+00  4.1406359468940E-02  2.9586867060801E-01  1.3296939131218E+00
118  1.1700000000000E+00  4.1444936894319E-02  2.7318433749870E-01  1.3246396278850E+00
119  1.1800000000000E+00  4.1024652902042E-02  2.5160149591624E-01  1.3111304966270E+00
120  1.1900000000000E+00  4.0202945180029E-02  2.3112257618427E-01  1.2896498365679E+00
121  1.2000000000000E+00  3.9034463903060E-02  2.1174380718150E-01  1.2607610374389E+00
122  1.2100000000000E+00  3.7570901118926E-02  1.9345559800863E-01  1.2250970632629E+00
123  1.2200000000000E+00  3.5860889459264E-02  1.7624296809485E-01  1.1833489549375E+00
124  1.2300000000000E+00  3.3949963469787E-02  1.6008601904674E-01  1.1362535430124E+00
125  1.2400000000000E+00  3.1880575880193E-02  1.4496044099378E-01  1.0845805962144E+00
126  1.2500000000000E+00  2.9692160320131E-02  1.3083804573693E-01  1.0291196439657E+00
127  1.2600000000000E+00  2.7421231347374E-02  1.1768731866741E-01  9.7066672014848E-01
128  1.2700000000000E+00  2.5101512190584E-02  1.0547398119303E-01  9.1001128066079E-01
129  1.2800000000000E+00  2.2764080314298E-02  9.4161555285677E-02  8.4792354903614E-01
130  1.2900000000000E+00  2.0437520786952E-02  8.3711921744973E-02  7.8514254262948E-01
131  1.3000000000000E+00  1.8148077460564E-02  7.4085863851800E-02  7.2236502692580E-01
132  1.3100000000000E+00  1.5919792142763E-02  6.5243588255969E-02  6.6023563760519E-01
133  1.3200000000000E+00  1.3774622241883E-02  5.7145215195252E-02  5.9933839950751E-01
134  1.3300000000000E+00  1.1732527776034E-02  4.9751230467806E-02  5.4018985896609E-01
135  1.3400000000000E+00  9.8115191371875E-03  4.3022891965071E-02  4.8323403157244E-01
136  1.3500000000000E+00  8.0276575752990E-03  3.6922584009065E-02  4.2883935164826E-01
137  1.3600000000000E+00  6.3950009883689E-03  3.1414113209542E-02  3.7729779312985E-01
138  1.3700000000000E+00  4.9254882552390E-03  2.6462940053880E-02  3.2882631460813E-01
139  1.3800000000000E+00  3.6287560079215E-03  2.2036340953242E-02  2.8357076431783E-01
140  1.3900000000000E+00  2.5118823916330E-03  1.8103495982291E-02  2.4161236437208E-01
141  1.4000000000000E+00  1.5790567817213E-03  1.4635500721388E-02  2.0297681900022E-01
142  1.4100000000000E+00  8.3111952361331E-04  1.1605262784448E-02  1.6764693199457E-01
143  1.4200000000000E+00  2.6524415886867E-04  8.9874649893115E-03  1.3557459889288E-01
144  1.4300000000000E+00 -1.2739059502443E-04  6.7571381877358E-03  1.0672510536105E-01
145  1.4400000000000E+00 -3.7459517446356E-04  4.8803118774893E-03  8.1291701729245E-02
146  1.4500000000000E+00 -4.9113141436576E-04  3.3364906008419E-03  5.9211206420077E-02
147  1.4600000000000E+00 -4.9021310888258E-04  2.1116298979996E-03  4.0347459250276E-02
148  1.4700000000000E+00 -3.9741154069256E-04  1.1884707519312E-03  2.4721912183694E-02
149  1.4800000000000E+00 -2.5035501215522E-04  5.4683190932186E-04  1.2530320023823E-02
150  1.4900000000000E+00 -9.7563074223756E-05  1.6122418903156E-04  4.1131202857852E-03
151  1.5000000000000E+00 -8.3492525345930E-06  1.0398248576980E-05  3.0193491065457E-04
152  1.5100000000000E+00  1.3207789920848E-06 -1.4614434666614E-06 -4.5263084891720E-05
153  1.5200000000000E+00 -2.0705975100519E-07  2.6051531992466E-07  7.5454657605732E-06
154  1.53  0.  0.  0.
155  1.54  0.  0.  0.
156  1.55  0.  0.  0.
157  1.56  0.  0.  0.
158  1.57  0.  0.  0.
159  1.58  0.  0.  0.
160  1.59  0.  0.  0.
161  1.60  0.  0.  0.
162  1.61  0.  0.  0.
163  1.62  0.  0.  0.
164  1.63  0.  0.  0.
165  1.64  0.  0.  0.
166  1.65  0.  0.  0.
167  1.66  0.  0.  0.
168  1.67  0.  0.  0.
169  1.68  0.  0.  0.
170  1.69  0.  0.  0.
171  1.70  0.  0.  0.
172  1.71  0.  0.  0.
173  1.72  0.  0.  0.
174  1.73  0.  0.  0.
175  1.74  0.  0.  0.
176  1.75  0.  0.  0.
177  1.76  0.  0.  0.
178  1.77  0.  0.  0.
179  1.78  0.  0.  0.
180  1.79  0.  0.  0.
181  1.80  0.  0.  0.
182  1.81  0.  0.  0.
183  1.82  0.  0.  0.
184  1.83  0.  0.  0.
185  1.84  0.  0.  0.
186  1.85  0.  0.  0.
187  1.86  0.  0.  0.
188  1.87  0.  0.  0.
189  1.88  0.  0.  0.
190  1.89  0.  0.  0.
191  1.90  0.  0.  0.
192  1.91  0.  0.  0.
193  1.92  0.  0.  0.
194  1.93  0.  0.  0.
195  1.94  0.  0.  0.
196  1.95  0.  0.  0.
197  1.96  0.  0.  0.
198  1.97  0.  0.  0.
199  1.98  0.  0.  0.
200  1.99  0.  0.  0.
201  2.00  0.  0.  0.
202  2.01  0.  0.  0.
203  2.02  0.  0.  0.
204  2.03  0.  0.  0.
205  2.04  0.  0.  0.
206  2.05  0.  0.  0.
207  2.06  0.  0.  0.
208  2.07  0.  0.  0.
209  2.08  0.  0.  0.
210  2.09  0.  0.  0.
211  2.10  0.  0.  0.
212  2.11  0.  0.  0.
213  2.12  0.  0.  0.
214  2.13  0.  0.  0.
215  2.14  0.  0.  0.
216  2.15  0.  0.  0.
217  2.16  0.  0.  0.
218  2.17  0.  0.  0.
219  2.18  0.  0.  0.
220  2.19  0.  0.  0.
221  2.20  0.  0.  0.
222  2.21  0.  0.  0.
223  2.22  0.  0.  0.
224  2.23  0.  0.  0.
225  2.24  0.  0.  0.
226  2.25  0.  0.  0.
227  2.26  0.  0.  0.
228  2.27  0.  0.  0.
229  2.28  0.  0.  0.
230  2.29  0.  0.  0.
231  2.30  0.  0.  0.
232  2.31  0.  0.  0.
233  2.32  0.  0.  0.
234  2.33  0.  0.  0.
235  2.34  0.  0.  0.
236  2.35  0.  0.  0.
237  2.36  0.  0.  0.
238  2.37  0.  0.  0.
239  2.38  0.  0.  0.
240  2.39  0.  0.  0.
241  2.40  0.  0.  0.
242  2.41  0.  0.  0.
243  2.42  0.  0.  0.
244  2.43  0.  0.  0.
245  2.44  0.  0.  0.
246  2.45  0.  0.  0.
247  2.46  0.  0.  0.
248  2.47  0.  0.  0.
249  2.48  0.  0.  0.
250  2.49  0.  0.  0.
251  2.50  0.  0.  0.
252  2.51  0.  0.  0.
253  2.52  0.  0.  0.
254  2.53  0.  0.  0.
255  2.54  0.  0.  0.
256  2.55  0.  0.  0.
257  2.56  0.  0.  0.
258  2.57  0.  0.  0.
259  2.58  0.  0.  0.
260  2.59  0.  0.  0.
261  2.60  0.  0.  0.
262  2.61  0.  0.  0.
263  2.62  0.  0.  0.
264  2.63  0.  0.  0.
265  2.64  0.  0.  0.
266  2.65  0.  0.  0.
267  2.66  0.  0.  0.
268  2.67  0.  0.  0.
269  2.68  0.  0.  0.
270  2.69  0.  0.  0.
271  2.70  0.  0.  0.
272  2.71  0.  0.  0.
273  2.72  0.  0.  0.
274  2.73  0.  0.  0.
275  2.74  0.  0.  0.
276  2.75  0.  0.  0.
277  2.76  0.  0.  0.
278  2.77  0.  0.  0.
279  2.78  0.  0.  0.
280  2.79  0.  0.  0.
281  2.80  0.  0.  0.
282  2.81  0.  0.  0.
283  2.82  0.  0.  0.
284  2.83  0.  0.  0.
285  2.84  0.  0.  0.
286  2.85  0.  0.  0.
287  2.86  0.  0.  0.
288  2.87  0.  0.  0.
289  2.88  0.  0.  0.
290  2.89  0.  0.  0.
291  2.90  0.  0.  0.
292  2.91  0.  0.  0.
293  2.92  0.  0.  0.
294  2.93  0.  0.  0.
295  2.94  0.  0.  0.
296  2.95  0.  0.  0.
297  2.96  0.  0.  0.
298  2.97  0.  0.  0.
299  2.98  0.  0.  0.
300  2.99  0.  0.  0.
301  3.00  0.  0.  0.
302  3.01  0.  0.  0.
303  3.02  0.  0.  0.
304  3.03  0.  0.  0.
305  3.04  0.  0.  0.
306  3.05  0.  0.  0.
307  3.06  0.  0.  0.
308  3.07  0.  0.  0.
309  3.08  0.  0.  0.
310  3.09  0.  0.  0.
311  3.10  0.  0.  0.
312  3.11  0.  0.  0.
313  3.12  0.  0.  0.
314  3.13  0.  0.  0.
315  3.14  0.  0.  0.
316  3.15  0.  0.  0.
317  3.16  0.  0.  0.
318  3.17  0.  0.  0.
319  3.18  0.  0.  0.
320  3.19  0.  0.  0.
321  3.20  0.  0.  0.
322  3.21  0.  0.  0.
323  3.22  0.  0.  0.
324  3.23  0.  0.  0.
325  3.24  0.  0.  0.
326  3.25  0.  0.  0.
327  3.26  0.  0.  0.
328  3.27  0.  0.  0.
329  3.28  0.  0.  0.
330  3.29  0.  0.  0.
331  3.30  0.  0.  0.
332  3.31  0.  0.  0.
333  3.32  0.  0.  0.
334  3.33  0.  0.  0.
335  3.34  0.  0.  0.
336  3.35  0.  0.  0.
337  3.36  0.  0.  0.
338  3.37  0.  0.  0.
339  3.38  0.  0.  0.
340  3.39  0.  0.  0.
341  3.40  0.  0.  0.
342  3.41  0.  0.  0.
343  3.42  0.  0.  0.
344  3.43  0.  0.  0.
345  3.44  0.  0.  0.
346  3.45  0.  0.  0.
347  3.46  0.  0.  0.
348  3.47  0.  0.  0.
349  3.48  0.  0.  0.
350  3.49  0.  0.  0.
351  3.50  0.  0.  0.
352  3.51  0.  0.  0.
353  3.52  0.  0.  0.
354  3.53  0.  0.  0.
355  3.54  0.  0.  0.
356  3.55  0.  0.  0.
357  3.56  0.  0.  0.
358  3.57  0.  0.  0.
359  3.58  0.  0.  0.
360  3.59  0.  0.  0.
361  3.60  0.  0.  0.
362  3.61  0.  0.  0.
363  3.62  0.  0.  0.
364  3.63  0.  0.  0.
365  3.64  0.  0.  0.
366  3.65  0.  0.  0.
367  3.66  0.  0.  0.
368  3.67  0.  0.  0.
369  3.68  0.  0.  0.
370  3.69  0.  0.  0.
371  3.70  0.  0.  0.
372  3.71  0.  0.  0.
373  3.72  0.  0.  0.
374  3.73  0.  0.  0.
375  3.74  0.  0.  0.
376  3.75  0.  0.  0.
377  3.76  0.  0.  0.
378  3.77  0.  0.  0.
379  3.78  0.  0.  0.
380  3.79  0.  0.  0.
381  3.80  0.  0.  0.
382  3.81  0.  0.  0.
383  3.82  0.  0.  0.
384  3.83  0.  0.  0.
385  3.84  0.  0.  0.
386  3.85  0.  0.  0.
387  3.86  0.  0.  0.
388  3.87  0.  0.  0.
389  3.88  0.  0.  0.
390  3.89  0.  0.  0.
391  3.90  0.  0.  0.
392  3.91  0.  0.  0.
393  3.92  0.  0.  0.
394  3.93  0.  0.  0.
395  3.94  0.  0.  0.
396  3.95  0.  0.  0.
397  3.96  0.  0.  0.
398  3.97  0.  0.  0.
399  3.98  0.  0.  0.
400  3.99  0.  0.  0.
401  4.00  0.  0.  0.
402  4.01  0.  0.  0.
403  4.02  0.  0.  0.
404  4.03  0.  0.  0.
405  4.04  0.  0.  0.
406  4.05  0.  0.  0.
407  4.06  0.  0.  0.
408  4.07  0.  0.  0.
409  4.08  0.  0.  0.
410  4.09  0.  0.  0.
411  4.10  0.  0.  0.
412  4.11  0.  0.  0.
413  4.12  0.  0.  0.
414  4.13  0.  0.  0.
415  4.14  0.  0.  0.
416  4.15  0.  0.  0.
417  4.16  0.  0.  0.
418  4.17  0.  0.  0.
419  4.18  0.  0.  0.
420  4.19  0.  0.  0.
421  4.20  0.  0.  0.
422  4.21  0.  0.  0.
423  4.22  0.  0.  0.
424  4.23  0.  0.  0.
425  4.24  0.  0.  0.
426  4.25  0.  0.  0.
427  4.26  0.  0.  0.
428  4.27  0.  0.  0.
429  4.28  0.  0.  0.
430  4.29  0.  0.  0.
431  4.30  0.  0.  0.
432  4.31  0.  0.  0.
433  4.32  0.  0.  0.
434  4.33  0.  0.  0.
435  4.34  0.  0.  0.
436  4.35  0.  0.  0.
437  4.36  0.  0.  0.
438  4.37  0.  0.  0.
439  4.38  0.  0.  0.
440  4.39  0.  0.  0.
441  4.40  0.  0.  0.
442  4.41  0.  0.  0.
443  4.42  0.  0.  0.
444  4.43  0.  0.  0.
445  4.44  0.  0.  0.
446  4.45  0.  0.  0.
447  4.46  0.  0.  0.
448  4.47  0.  0.  0.
449  4.48  0.  0.  0.
450  4.49  0.  0.  0.
451  4.50  0.  0.  0.
452  4.51  0.  0.  0.
453  4.52  0.  0.  0.
454  4.53  0.  0.  0.
455  4.54  0.  0.  0.
456  4.55  0.  0.  0.
457  4.56  0.  0.  0.
458  4.57  0.  0.  0.
459  4.58  0.  0.  0.
460  4.59  0.  0.  0.
461  4.60  0.  0.  0.
462  4.61  0.  0.  0.
463  4.62  0.  0.  0.
464  4.63  0.  0.  0.
465  4.64  0.  0.  0.
466  4.65  0.  0.  0.
467  4.66  0.  0.  0.
468  4.67  0.  0.  0.
469  4.68  0.  0.  0.
470  4.69  0.  0.  0.
471  4.70  0.  0.  0.
472  4.71  0.  0.  0.
473  4.72  0.  0.  0.
474  4.73  0.  0.  0.
475  4.74  0.  0.  0.
476  4.75  0.  0.  0.
477  4.76  0.  0.  0.
478  4.77  0.  0.  0.
479  4.78  0.  0.  0.
480  4.79  0.  0.  0.
481  4.80  0.  0.  0.
482  4.81  0.  0.  0.
483  4.82  0.  0.  0.
484  4.83  0.  0.  0.
485  4.84  0.  0.  0.
486  4.85  0.  0.  0.
487  4.86  0.  0.  0.
488  4.87  0.  0.  0.
489  4.88  0.  0.  0.
490  4.89  0.  0.  0.
491  4.90  0.  0.  0.
492  4.91  0.  0.  0.
493  4.92  0.  0.  0.
494  4.93  0.  0.  0.
495  4.94  0.  0.  0.
496  4.95  0.  0.  0.
497  4.96  0.  0.  0.
498  4.97  0.  0.  0.
499  4.98  0.  0.  0.
500  4.99  0.  0.  0.
501  5.00  0.  0.  0.
502  5.01  0.  0.  0.
503  5.02  0.  0.  0.
504  5.03  0.  0.  0.
505  5.04  0.  0.  0.
506  5.05  0.  0.  0.
507  5.06  0.  0.  0.
508  5.07  0.  0.  0.
509  5.08  0.  0.  0.
510  5.09  0.  0.  0.
511  5.10  0.  0.  0.
512  5.11  0.  0.  0.
513  5.12  0.  0.  0.
514  5.13  0.  0.  0.
515  5.14  0.  0.  0.
516  5.15  0.  0.  0.
517  5.16  0.  0.  0.
518  5.17  0.  0.  0.
519  5.18  0.  0.  0.
520  5.19  0.  0.  0.
521  5.20  0.  0.  0.
522  5.21  0.  0.  0.
523  5.22  0.  0.  0.
524  5.23  0.  0.  0.
525  5.24  0.  0.  0.
526  5.25  0.  0.  0.
527  5.26  0.  0.  0.
528  5.27  0.  0.  0.
529  5.28  0.  0.  0.
530  5.29  0.  0.  0.
531  5.30  0.  0.  0.
532  5.31  0.  0.  0.
533  5.32  0.  0.  0.
534  5.33  0.  0.  0.
535  5.34  0.  0.  0.
536  5.35  0.  0.  0.
537  5.36  0.  0.  0.
538  5.37  0.  0.  0.
539  5.38  0.  0.  0.
540  5.39  0.  0.  0.
541  5.40  0.  0.  0.
542  5.41  0.  0.  0.
543  5.42  0.  0.  0.
544  5.43  0.  0.  0.
545  5.44  0.  0.  0.
546  5.45  0.  0.  0.
547  5.46  0.  0.  0.
548  5.47  0.  0.  0.
549  5.48  0.  0.  0.
550  5.49  0.  0.  0.
551  5.50  0.  0.  0.
552  5.51  0.  0.  0.
553  5.52  0.  0.  0.
554  5.53  0.  0.  0.
555  5.54  0.  0.  0.
556  5.55  0.  0.  0.
557  5.56  0.  0.  0.
558  5.57  0.  0.  0.
559  5.58  0.  0.  0.
560  5.59  0.  0.  0.
561  5.60  0.  0.  0.
562  5.61  0.  0.  0.
563  5.62  0.  0.  0.
564  5.63  0.  0.  0.
565  5.64  0.  0.  0.
566  5.65  0.  0.  0.
567  5.66  0.  0.  0.
568  5.67  0.  0.  0.
569  5.68  0.  0.  0.
570  5.69  0.  0.  0.
571  5.70  0.  0.  0.
572  5.71  0.  0.  0.
573  5.72  0.  0.  0.
574  5.73  0.  0.  0.
575  5.74  0.  0.  0.
576  5.75  0.  0.  0.
577  5.76  0.  0.  0.
578  5.77  0.  0.  0.
579  5.78  0.  0.  0.
580  5.79  0.  0.  0.
581  5.80  0.  0.  0.
582  5.81  0.  0.  0.
583  5.82  0.  0.  0.
584  5.83  0.  0.  0.
585  5.84  0.  0.  0.
586  5.85  0.  0.  0.
587  5.86  0.  0.  0.
588  5.87  0.  0.  0.
589  5.88  0.  0.  0.
590  5.89  0.  0.  0.
591  5.90  0.  0.  0.
592  5.91  0.  0.  0.
593  5.92  0.  0.  0.
594  5.93  0.  0.  0.
595  5.94  0.  0.  0.
596  5.95  0.  0.  0.
597  5.96  0.  0.  0.
598  5.97  0.  0.  0.
599  5.98  0.  0.  0.
600  5.99  0.  0.  0.
1                         6.2924100639551E+00 -1.8534401586376E+00 -6.4751056357347E-01
1  0.0000000000000E+00  1.2746736444136E-09 -1.2571638313696E-09  4.9060649986998E-10
2  1.0000000000000E-02  2.6115384974666E-03 -1.4633835290780E-03  2.0450149477879E-03
3  2.0000000000000E-02  1.0430136554111E-02 -5.8382214640258E-03  8.1610554775174E-03
4  3.0000000000000E-02  2.3407844812651E-02 -1.3078691392512E-02  1.8291238412150E-02
5  4.0000000000000E-02  4.1465090184626E-02 -2.3108807175452E-02  3.2341190958715E-02
6  5.0000000000000E-02  6.4491187305235E-02 -3.5822993663735E-02  5.0179699279261E-02
7  6.0000000000000E-02  9.2345049968464E-02 -5.1086887077469E-02  7.1639616033215E-02
8  7.0000000000000E-02  1.2485609796434E-01 -6.8738356792316E-02  9.6519026218230E-02
9  8.0000000000000E-02  1.6182535346540E-01 -8.8588743020374E-02  1.2458267014601E-01
10  9.0000000000000E-02  2.0302671986102E-01 -1.1042430358779E-01  1.5556362168682E-01
11  1.0000000000000E-01  2.4820843472144E-01 -1.3400786169717E-01  1.8916521897122E-01
12  1.1000000000000E-01  2.9709468739567E-01 -1.5908064521984E-01  2.2506324352546E-01
13  1.2000000000000E-01  3.4938739061570E-01 -1.8536430669412E-01  2.6290834232332E-01
14  1.3000000000000E-01  4.0476809440048E-01 -2.1256311181717E-01  3.0232868545696E-01
15  1.4000000000000E-01  4.6290002953555E-01 -2.4036628281821E-01  3.4293285006912E-01
16  1.5000000000000E-01  5.2343026695497E-01 -2.6845048170116E-01  3.8431291886382E-01
17  1.6000000000000E-01  5.8599197848065E-01 -2.9648241696017E-01  4.2604777895039E-01
18  1.7000000000000E-01  6.5020678358711E-01 -3.2412155601827E-01  4.6770660401271E-01
19  1.8000000000000E-01  7.1568716616693E-01 -3.5102292433718E-01  5.0885249987830E-01
20  1.9000000000000E-01  7.8203894468090E-01 -3.7683997091606E-01  5.4904629054582E-01
21  2.0000000000000E-01  8.4886377859568E-01 -4.0122747876205E-01  5.8785041867693E-01
22  2.1000000000000E-01  9.1576169364755E-01 -4.2384449789915E-01  6.2483293153727E-01
23  2.2000000000000E-01  9.8233360823166E-01 -4.4435727760893E-01  6.5957152045631E-01
24  2.3000000000000E-01  1.0481838431074E+00 -4.6244217389133E-01  6.9165757914027E-01
25  2.4000000000000E-01  1.1129225966379E+00 -4.7778850761995E-01  7.2070024369597E-01
26  2.5000000000000E-01  1.1761683679502E+00 -4.9010134856569E-01  7.4633037507929E-01
27  2.6000000000000E-01  1.2375503107136E+00 -4.9910420039712E-01  7.6820444294593E-01
28  2.7000000000000E-01  1.2967105006930E+00 -5.0454156195185E-01  7.8600826861952E-01
29  2.8000000000000E-01  1.3533061008350E+00 -5.0618134052662E-01  7.9946058416763E-01
30  2.9000000000000E-01  1.4070114083952E+00 -5.0381709366530E-01  8.0831636444089E-01
31  3.0000000000000E-01  1.4575197695035E+00 -4.9727007694118E-01  8.1236988942893E-01
32  3.1000000000000E-01  1.5045453475900E+00 -4.8639107653459E-01  8.1145749545157E-01
33  3.2000000000000E-01  1.5478247332551E+00 -4.7106200699806E-01  8.0545997555395E-01
34  3.3000000000000E-01  1.5871183844410E+00 -4.5119725647038E-01  7.9430459201667E-01
35  3.4000000000000E-01  1.6222118871590E+00 -4.2674476373721E-01  7.7796666712047E-01
36  3.5000000000000E-01  1.6529170285129E+00 -3.9768681392027E-01  7.5647072219550E-01
37  3.6000000000000E-01  1.6790726753422E+00 -3.6404054218892E-01  7.2989113950483E-01
38  3.7000000000000E-01  1.7005454534536E+00 -3.2585813769821E-01  6.9835232660866E-01
39  3.8000000000000E-01  1.7172302241189E+00 -2.8322674293603E-01  6.6202836846786E-01
40  3.9000000000000E-01  1.7290503562584E+00 -2.3626804677195E-01  6.2114215859723E-01
41  4.0000000000000E-01  1.7359577944924E+00 -1.8513757270293E-01  5.7596400698369E-01
42  4.1000000000000E-01  1.7379329250093E+00 -1.3002366704478E-01  5.2680972914672E-01
43  4.2000000000000E-01  1.7349842429417E+00 -7.1146195077040E-02  4.7403822753270E-01
44  4.3000000000000E-01  1.7271478266498E+00 -8.7549563692941E-03  4.1804858329253E-01
45  4.4000000000000E-01  1.7144866259621E+00  5.6872166349907E-02  3.5927668327727E-01
46  4.5000000000000E-01  1.6970895729959E+00  1.2543130741864E-01  2.9819141368502E-01
47  4.6000000000000E-01  1.6750705256543E+00  1.9659494737517E-01  2.3529045808810E-01
48  4.7000000000000E-01  1.6485670552698E+00  2.7001444821026E-01  1.7109574344879E-01
49  4.8000000000000E-01  1.6177390910943E+00  3.4532276960745E-01  1.0614858308986E-01
50  4.9000000000000E-01  1.5827674354366E+00  4.2213733899829E-01  4.1004570319345E-02
51  5.0000000000000E-01  1.5438521641858E+00  5.0006304654850E-01 -2.3771719571091E-02
52  5.1000000000000E-01  1.5012109282360E+00  5.7869533484023E-01 -8.7612157988628E-02
53  5.2000000000000E-01  1.4550771719273E+00  6.5762335204647E-01 -1.4995055909123E-01
54  5.3000000000000E-01  1.4056982850414E+00  7.3643313682459E-01 -2.1022817844432E-01
55  5.4000000000000E-01  1.3533337051263E+00  8.1471080299477E-01 -2.6789914901230E-01
56  5.5000000000000E-01  1.2982529869811E+00  8.9204569232250E-01 -3.2243578967877E-01
57  5.6000000000000E-01  1.2407338559999E+00  9.6803346438648E-01 -3.7333372292441E-01
58  5.7000000000000E-01  1.1810602617705E+00  1.0422790935763E+00 -4.2011674068231E-01
59  5.8000000000000E-01  1.1195204478402E+00  1.1143997447114E+00 -4.6234136070657E-01
60  5.9000000000000E-01  1.0564050529211E+00  1.1840275005815E+00 -4.9960101998096E-01
61  6.0000000000000E-01  9.9200525801243E-01  1.2508119168475E+00 -5.3152985669617E-01
62  6.1000000000000E-01  9.2661099298490E-01  1.3144223821847E+00 -5.5780603805730E-01
63  6.2000000000000E-01  8.6050921511487E-01  1.3745502642444E+00 -5.7815459755241E-01
64  6.3000000000000E-01  7.9398227089436E-01  1.4309108249291E+00 -5.9234975221608E-01
65  6.4000000000000E-01  7.2730635119040E-01  1.4832448915543E+00 -6.0021667774022E-01
66  6.5000000000000E-01  6.6075004850611E-01  1.5313202736797E+00 -6.0163272689948E-01
67  6.6000000000000E-01  5.9457302372412E-01  1.5749329186592E+00 -5.9652808453646E-01
68  6.7000000000000E-01  5.2902478831187E-01  1.6139078022514E+00 -5.8488586016794E-01
69  6.8000000000000E-01  4.6434360655647E-01  1.6480995538834E+00 -5.6674162698922E-01
70  6.9000000000000E-01  4.0075552099602E-01  1.6773928193321E+00 -5.4218242354393E-01
71  7.0000000000000E-01  3.3847350284152E-01  1.7017023666176E+00 -5.1134524146422E-01
72  7.1000000000000E-01  2.7769672785874E-01  1.7209729437617E+00 -4.7441502935143E-01