Ub    ONCVPSP-4.0.1  r_core=   1.50269   1.50269   1.50269
120.0000     28.0000      230612    zatom,zion,pspd
8      11   2     4   600     0    pspcod,pspxc,lmax,lloc,mmax,r2well
5.99000000  5.00000000  0.00000000    rchrg fchrg qchrg
3     2     2     0     0    nproj
1     1           extension_switch
0                         1.9906487246547E+01 -3.5512656802772E+00 -2.4554420665300E-01
1  0.0000000000000E+00 -1.7372308036556E-09 -5.3266696609100E-10  2.3729315956622E-08
2  1.0000000000000E-02  1.3036951266896E-01  1.7907213902319E-02 -1.1792472355878E-01
3  2.0000000000000E-02  2.6008595708427E-01  3.5819712670974E-02 -2.3435562683126E-01
4  3.0000000000000E-02  3.8850061561014E-01  5.3743039638365E-02 -3.4781949409964E-01
5  4.0000000000000E-02  5.1497343372567E-01  7.1683248251540E-02 -4.5688398610151E-01
6  5.0000000000000E-02  6.3887725673214E-01  8.9647140226374E-02 -5.6017725280991E-01
7  6.0000000000000E-02  7.5960195389858E-01  1.0764248380851E-01 -6.5640657306341E-01
8  7.0000000000000E-02  8.7655839460123E-01  1.2567820615202E-01 -7.4437572525025E-01
9  8.0000000000000E-02  9.8918224274964E-01  1.4376455435930E-01 -8.2300081697957E-01
10  9.0000000000000E-02  1.0969375379119E+00  1.6191322037022E-01 -8.9132433038894E-01
11  1.0000000000000E-01  1.1993200340208E+00  1.8013742563056E-01 -9.4852717283848E-01
12  1.1000000000000E-01  1.2958602693222E+00  1.9845196229444E-01 -9.9393855954137E-01
13  1.2000000000000E-01  1.3861263442764E+00  2.1687318860496E-01 -1.0270435944118E+00
14  1.3000000000000E-01  1.4697263873936E+00  2.3541897703302E-01 -1.0474884572630E+00
15  1.4000000000000E-01  1.5463106924277E+00  2.5410861471637E-01 -1.0550831485845E+00
16  1.5000000000000E-01  1.6155735139198E+00  2.7296265671095E-01 -1.0498017866152E+00
17  1.6000000000000E-01  1.6772545117188E+00  2.9200273352163E-01 -1.0317804944013E+00
18  1.7000000000000E-01  1.7311398387619E+00  3.1125131530331E-01 -1.0013129561509E+00
19  1.8000000000000E-01  1.7770628700200E+00  3.3073143599488E-01 -9.5884376162948E-01
20  1.9000000000000E-01  1.8149045740600E+00  3.5046638145127E-01 -9.0495969382747E-01
21  2.0000000000000E-01  1.8445935320878E+00  3.7047934635738E-01 -8.4037914797464E-01
22  2.1000000000000E-01  1.8661056125866E+00  3.9079306532705E-01 -7.6593989856740E-01
23  2.2000000000000E-01  1.8794633127053E+00  4.1142942410056E-01 -6.8258545490321E-01
24  2.3000000000000E-01  1.8847347803494E+00  4.3240905714446E-01 -5.9135026429115E-01
25  2.4000000000000E-01  1.8820325334604E+00  4.5375093822330E-01 -4.9334403533209E-01
26  2.5000000000000E-01  1.8715118952073E+00  4.7547197064901E-01 -3.8973546128670E-01
27  2.6000000000000E-01  1.8533691657421E+00  4.9758658392011E-01 -2.8173562552657E-01
28  2.7000000000000E-01  1.8278395527869E+00  5.2010634334190E-01 -1.7058136749210E-01
29  2.8000000000000E-01  1.7951948846018E+00  5.4303957897382E-01 -5.7518878642744E-02
30  2.9000000000000E-01  1.7557411298464E+00  5.6639103989028E-01  5.6212216071873E-02
31  3.0000000000000E-01  1.7098157494929E+00  5.9016157927417E-01  1.6939405428319E-01
32  3.1000000000000E-01  1.6577849062856E+00  6.1434787530153E-01  2.8084479555283E-01
33  3.2000000000000E-01  1.6000405572853E+00  6.3894219213336E-01  3.8943175593123E-01
34  3.3000000000000E-01  1.5369974548176E+00  6.6393218462277E-01  4.9408325869321E-01
35  3.4000000000000E-01  1.4690900806657E+00  6.8930074958780E-01  5.9379907339048E-01
36  3.5000000000000E-01  1.3967695376562E+00  7.1502592570929E-01  6.8765934794765E-01
37  3.6000000000000E-01  1.3205004218996E+00  7.4108084330694E-01  7.7483197174428E-01
38  3.7000000000000E-01  1.2407576978890E+00  7.6743372444116E-01  8.5457834075278E-01
39  3.8000000000000E-01  1.1580235974791E+00  7.9404793300161E-01  9.2625752808359E-01
40  3.9000000000000E-01  1.0727845624714E+00  8.2088207368925E-01  9.8932889405270E-01
41  4.0000000000000E-01  9.8552824916693E-01  8.4789013809447E-01  1.0433531984737E+00
42  4.1000000000000E-01  8.9674061183079E-01  8.7502169542954E-01  1.0879923037328E+00
43  4.2000000000000E-01  8.0690308057909E-01  9.0222212490347E-01  1.1230075798156E+00
44  4.3000000000000E-01  7.1648984776113E-01  9.2943288623851E-01  1.1482571414253E+00
45  4.4000000000000E-01  6.2596527549823E-01  9.5659182442796E-01  1.1636920623590E+00
46  4.5000000000000E-01  5.3578143566651E-01  9.8363350453010E-01  1.1693517231576E+00
47  4.6000000000000E-01  4.4637579229043E-01  1.0104895720838E+00  1.1653584546571E+00
48  4.7000000000000E-01  3.5816903505745E-01  1.0370891346198E+00  1.1519116423980E+00
49  4.8000000000000E-01  2.7156307147806E-01  1.0633591597235E+00  1.1292814550461E+00
50  4.9000000000000E-01  1.8693918410416E-01  1.0892248851780E+00  1.0978023542169E+00
51  5.0000000000000E-01  1.0465635818103E-01  1.1146102368718E+00  1.0578665336925E+00
52  5.1000000000000E-01  2.5049784143758E-02  1.1394382503871E+00  1.0099174233376E+00
53  5.2000000000000E-01 -5.1570461530307E-02  1.1636314924812E+00  9.5444337753043E-01
54  5.3000000000000E-01 -1.2492055444098E-01  1.1871124790240E+00  8.9197165012118E-01
55  5.4000000000000E-01 -1.9474387747469E-01  1.2098040863493E+00  8.2306273837518E-01
56  5.5000000000000E-01 -2.6081179197326E-01  1.2316299533967E+00  7.4830515763754E-01
57  5.6000000000000E-01 -3.2292422445571E-01  1.2525148724634E+00  6.6831068718210E-01
58  5.7000000000000E-01 -3.8091006919501E-01  1.2723851668223E+00  5.8371010646460E-01
59  5.8000000000000E-01 -4.3462740765644E-01  1.2911690538967E+00  4.9514942039721E-01
60  5.9000000000000E-01 -4.8396354651549E-01  1.3087969930921E+00  4.0328655284216E-01
61  6.0000000000000E-01 -5.2883487670141E-01  1.3252020177596E+00  3.0878846981375E-01
62  6.1000000000000E-01 -5.6918655666443E-01  1.3403200511028E+00  2.1232867833547E-01
63  6.2000000000000E-01 -6.0499202384787E-01  1.3540902061202E+00  1.1458503391400E-01
64  6.3000000000000E-01 -6.3625233916316E-01  1.3664550699036E+00  1.6237779497618E-02
65  6.4000000000000E-01 -6.6299537011792E-01  1.3773609727728E+00 -8.2032268202974E-02
66  6.5000000000000E-01 -6.8527481913380E-01  1.3867582428288E+00 -1.7954547286285E-01
67  6.6000000000000E-01 -7.0316910450629E-01  1.3946014465376E+00 -2.7562516138648E-01
68  6.7000000000000E-01 -7.1678010239810E-01  1.4008496159240E+00 -3.6959952075987E-01
69  6.8000000000000E-01 -7.2623175920907E-01  1.4054664628651E+00 -4.6080368815917E-01
70  6.9000000000000E-01 -7.3166858462034E-01  1.4084205808168E+00 -5.4858210449984E-01
71  7.0000000000000E-01 -7.3325403655104E-01  1.4096856341136E+00 -6.3229118989662E-01
72  7.1000000000000E-01 -7.3116881017982E-01  1.4092405347358E+00 -7.1130238543314E-01
73  7.2000000000000E-01 -7.2560904405075E-01  1.4070696061674E+00 -7.8500558968006E-01
74  7.3000000000000E-01 -7.1678445708841E-01  1.4031627336734E+00 -8.5281300098197E-01
75  7.4000000000000E-01 -7.0491643106880E-01  1.3975155000196E+00 -9.1416335818547E-01
76  7.5000000000000E-01 -6.9023605371522E-01  1.3901293053551E+00 -9.6852655371546E-01
77  7.6000000000000E-01 -6.7298213809114E-01  1.3810114696881E+00 -1.0154085742855E+00
78  7.7000000000000E-01 -6.5339923432994E-01  1.3701753161202E+00 -1.0543567065678E+00
79  7.8000000000000E-01 -6.3173564995817E-01  1.3576402327733E+00 -1.0849649283854E+00
80  7.9000000000000E-01 -6.0824149512106E-01  1.3434317111639E+00 -1.1068793909165E+00
81  8.0000000000000E-01 -5.8316676889642E-01  1.3275813586456E+00 -1.1198038844600E+00
82  8.1000000000000E-01 -5.5675950257664E-01  1.3101268824821E+00 -1.1235051699104E+00
83  8.2000000000000E-01 -5.2926397530393E-01  1.2911120431116E+00 -1.1178180505573E+00
84  8.3000000000000E-01 -5.0091901676022E-01  1.2705865742438E+00 -1.1026500544270E+00
85  8.4000000000000E-01 -4.7195641074118E-01  1.2486060675855E+00 -1.0779855963017E+00
86  8.5000000000000E-01 -4.4259941239058E-01  1.2252318202211E+00 -1.0438894908948E+00
87  8.6000000000000E-01 -4.1306139064540E-01  1.2005306429799E+00 -1.0005096944380E+00
88  8.7000000000000E-01 -3.8354460605736E-01  1.1745746285056E+00 -9.4807916108113E-01
89  8.8000000000000E-01 -3.5423913262840E-01  1.1474408781842E+00 -8.8691671287614E-01
90  8.9000000000000E-01 -3.2532193064721E-01  1.1192111875992E+00 -8.1742683745125E-01
91  9.0000000000000E-01 -2.9695607576173E-01  1.0899716907348E+00 -7.4009834550765E-01
92  9.1000000000000E-01 -2.6929014769529E-01  1.0598124637513E+00 -6.5550184058117E-01
93  9.2000000000000E-01 -2.4245778013723E-01  1.0288270897831E+00 -5.6428597568380E-01
94  9.3000000000000E-01 -2.1657737144182E-01  9.9711218685399E-01 -4.6717249498723E-01
95  9.4000000000000E-01 -1.9175195387966E-01  9.6476690165571E-01 -3.6495008311903E-01
96  9.5000000000000E-01 -1.6806921733570E-01  9.3189237257245E-01 -2.5846706933785E-01
97  9.6000000000000E-01 -1.4560168156311E-01  8.9859116595006E-01 -1.4862305832335E-01
98  9.7000000000000E-01 -1.2440700941451E-01  8.6496669018584E-01 -3.6359582955082E-02
99  9.8000000000000E-01 -1.0452845190585E-01  8.3112259274211E-01  7.7350103247126E-02
100  9.9000000000000E-01 -8.5995414549650E-02  7.9716214565067E-01  1.9151195592997E-01
101  1.0000000000000E+00 -6.8824133145547E-02  7.6318762546568E-01  3.0512263578874E-01
102  1.0100000000000E+00 -5.3018446156229E-02  7.2929969392900E-01  4.1718139905591E-01
103  1.0200000000000E+00 -3.8570649942766E-02  6.9559678582600E-01  5.2670219897756E-01
104  1.0300000000000E+00 -2.5462422496683E-02  6.6217451062596E-01  6.3272580595266E-01
105  1.0400000000000E+00 -1.3665800895437E-02  6.2912507451367E-01  7.3433174897908E-01
106  1.0500000000000E+00 -3.1441975284699E-03  5.9653672932559E-01  8.3064987985002E-01
107  1.0600000000000E+00  6.1465598083422E-03  5.6449325470494E-01  9.2087136422671E-01
108  1.0700000000000E+00  1.4257178574320E-02  5.3307347948597E-01  1.0042589102661E+00
109  1.0800000000000E+00  2.1243857029585E-02  5.0235084791322E-01  1.0801560558195E+00
110  1.0900000000000E+00  2.7167258088973E-02  4.7239303580137E-01  1.1479953491384E+00
111  1.1000000000000E+00  3.2091514013596E-02  4.4326162115369E-01  1.2073052752917E+00
112  1.1100000000000E+00  3.6083273401772E-02  4.1501181309109E-01  1.2577158007754E+00
113  1.1200000000000E+00  3.9210800720630E-02  3.8769224220877E-01  1.2989624317411E+00
114  1.1300000000000E+00  4.1543137274563E-02  3.6134481468869E-01  1.3308887063553E+00
115  1.1400000000000E+00  4.3149331055143E-02  3.3600463166088E-01  1.3534470687110E+00
116  1.1500000000000E+00  4.4097741395978E-02  3.1169997444587E-01  1.3666980997372E+00
117  1.1600000000000E+00  4.4455422781194E-02  2.8845235542969E-01  1.3708081093986E+00
118  1.1700000000000E+00  4.4287590567313E-02  2.6627663344514E-01  1.3660451233957E+00
119  1.1800000000000E+00  4.3657169792353E-02  2.4518119166370E-01  1.3527733262314E+00
120  1.1900000000000E+00  4.2624426695127E-02  2.2516817516140E-01  1.3314460502941E+00
121  1.2000000000000E+00  4.1246681077139E-02  2.0623378451918E-01  1.3025974270294E+00
122  1.2100000000000E+00  3.9578096222810E-02  1.8836862106312E-01  1.2668328410683E+00
123  1.2200000000000E+00  3.7669541788849E-02  1.7155807866011E-01  1.2248183506432E+00
124  1.2300000000000E+00  3.5568523873894E-02  1.5578277635847E-01  1.1772692578400E+00
125  1.2400000000000E+00  3.3319175423155E-02  1.4101902561874E-01  1.1249380295309E+00
126  1.2500000000000E+00  3.0962299203852E-02  1.2723932541590E-01  1.0686017842875E+00
127  1.2600000000000E+00  2.8535454819210E-02  1.1441287811679E-01  1.0090495719548E+00
128  1.2700000000000E+00  2.6073080618788E-02  1.0250611874962E-01  9.4706968076828E-01
129  1.2800000000000E+00  2.3606640904619E-02  9.1483250082820E-02  8.8343721202638E-01
130  1.2900000000000E+00  2.1164788529267E-02  8.1306775820461E-02  8.1890216437739E-01
131  1.3000000000000E+00  1.8773532824959E-02  7.1938024195283E-02  7.5417826893133E-01
132  1.3100000000000E+00  1.6456402783666E-02  6.3337654295667E-02  6.8993281284394E-01
133  1.3200000000000E+00  1.4234595517157E-02  5.5466137592904E-02  6.2677768295594E-01
134  1.3300000000000E+00  1.2127100248435E-02  4.8284207333175E-02  5.6526185285917E-01
135  1.3400000000000E+00  1.0150788406976E-02  4.1753268716522E-02  5.0586552667215E-01
136  1.3500000000000E+00  8.3204608070159E-03  3.5835763096754E-02  4.4899614115055E-01
137  1.3600000000000E+00  6.6488433584552E-03  3.0495479789055E-02  3.9498641498736E-01
138  1.3700000000000E+00  5.1465232822259E-03  2.5697809460481E-02  3.4409462053288E-01
139  1.3800000000000E+00  3.8218183548786E-03  2.1409933490901E-02  2.9650723910661E-01
140  1.3900000000000E+00  2.6805722805528E-03  1.7600944123342E-02  2.5234414681471E-01
141  1.4000000000000E+00  1.7258734657407E-03  1.4241893076940E-02  2.1166640918594E-01
142  1.4100000000000E+00  9.5764222931092E-04  1.1305732002274E-02  1.7448754383348E-01
143  1.4200000000000E+00  3.7234532800771E-04  8.7673090867749E-03  1.4078442678488E-01
144  1.4300000000000E+00 -3.9219552286949E-05  6.6020989116093E-03  1.1053857813605E-01
145  1.4400000000000E+00 -3.0418122305203E-04  4.7777656944420E-03  8.3934250969149E-02
146  1.4500000000000E+00 -4.3718053273060E-04  3.2745423214892E-03  6.0909715929967E-02
147  1.4600000000000E+00 -4.5154653565197E-04  2.0788326595046E-03  4.1331563596620E-02
148  1.4700000000000E+00 -3.7256255486168E-04  1.1744478834465E-03  2.5210206088867E-02
149  1.4800000000000E+00 -2.3720776301631E-04  5.4288358325060E-04  1.2717028560403E-02
150  1.4900000000000E+00 -9.3082025420483E-05  1.6095115701592E-04  4.1544530201074E-03
151  1.5000000000000E+00 -7.9911878614366E-06  1.0459464019888E-05  3.0331267219015E-04
152  1.5100000000000E+00  1.2725986479410E-06 -1.4752221875906E-06 -4.5399852192639E-05
153  1.5200000000000E+00 -1.9901701158132E-07  2.6190679763106E-07  7.5857217433477E-06
154  1.53 -0. -0.  0.
155  1.54  0.  0.  0.
156  1.55  0.  0.  0.
157  1.56  0.  0.  0.
158  1.57  0.  0.  0.
159  1.58  0.  0.  0.
160  1.59  0.  0.  0.
161  1.60  0.  0.  0.
162  1.61  0.  0.  0.
163  1.62  0.  0.  0.
164  1.63  0.  0.  0.
165  1.64  0.  0.  0.
166  1.65  0.  0.  0.
167  1.66  0.  0.  0.
168  1.67  0.  0.  0.
169  1.68  0.  0.  0.
170  1.69  0.  0.  0.
171  1.70  0.  0.  0.
172  1.71  0.  0.  0.
173  1.72  0.  0.  0.
174  1.73  0.  0.  0.
175  1.74  0.  0.  0.
176  1.75  0.  0.  0.
177  1.76  0.  0.  0.
178  1.77  0.  0.  0.
179  1.78  0.  0.  0.
180  1.79  0.  0.  0.
181  1.80  0.  0.  0.
182  1.81  0.  0.  0.
183  1.82  0.  0.  0.
184  1.83  0.  0.  0.
185  1.84  0.  0.  0.
186  1.85  0.  0.  0.
187  1.86  0.  0.  0.
188  1.87  0.  0.  0.
189  1.88  0.  0.  0.
190  1.89  0.  0.  0.
191  1.90  0.  0.  0.
192  1.91  0.  0.  0.
193  1.92  0.  0.  0.
194  1.93  0.  0.  0.
195  1.94  0.  0.  0.
196  1.95  0.  0.  0.
197  1.96  0.  0.  0.
198  1.97  0.  0.  0.
199  1.98  0.  0.  0.
200  1.99  0.  0.  0.
201  2.00  0.  0.  0.
202  2.01  0.  0.  0.
203  2.02  0.  0.  0.
204  2.03  0.  0.  0.
205  2.04  0.  0.  0.
206  2.05  0.  0.  0.
207  2.06  0.  0.  0.
208  2.07  0.  0.  0.
209  2.08  0.  0.  0.
210  2.09  0.  0.  0.
211  2.10  0.  0.  0.
212  2.11  0.  0.  0.
213  2.12  0.  0.  0.
214  2.13  0.  0.  0.
215  2.14  0.  0.  0.
216  2.15  0.  0.  0.
217  2.16  0.  0.  0.
218  2.17  0.  0.  0.
219  2.18  0.  0.  0.
220  2.19  0.  0.  0.
221  2.20  0.  0.  0.
222  2.21  0.  0.  0.
223  2.22  0.  0.  0.
224  2.23  0.  0.  0.
225  2.24  0.  0.  0.
226  2.25  0.  0.  0.
227  2.26  0.  0.  0.
228  2.27  0.  0.  0.
229  2.28  0.  0.  0.
230  2.29  0.  0.  0.
231  2.30  0.  0.  0.
232  2.31  0.  0.  0.
233  2.32  0.  0.  0.
234  2.33  0.  0.  0.
235  2.34  0.  0.  0.
236  2.35  0.  0.  0.
237  2.36  0.  0.  0.
238  2.37  0.  0.  0.
239  2.38  0.  0.  0.
240  2.39  0.  0.  0.
241  2.40  0.  0.  0.
242  2.41  0.  0.  0.
243  2.42  0.  0.  0.
244  2.43  0.  0.  0.
245  2.44  0.  0.  0.
246  2.45  0.  0.  0.
247  2.46  0.  0.  0.
248  2.47  0.  0.  0.
249  2.48  0.  0.  0.
250  2.49  0.  0.  0.
251  2.50  0.  0.  0.
252  2.51  0.  0.  0.
253  2.52  0.  0.  0.
254  2.53  0.  0.  0.
255  2.54  0.  0.  0.
256  2.55  0.  0.  0.
257  2.56  0.  0.  0.
258  2.57  0.  0.  0.
259  2.58  0.  0.  0.
260  2.59  0.  0.  0.
261  2.60  0.  0.  0.
262  2.61  0.  0.  0.
263  2.62  0.  0.  0.
264  2.63  0.  0.  0.
265  2.64  0.  0.  0.
266  2.65  0.  0.  0.
267  2.66  0.  0.  0.
268  2.67  0.  0.  0.
269  2.68  0.  0.  0.
270  2.69  0.  0.  0.
271  2.70  0.  0.  0.
272  2.71  0.  0.  0.
273  2.72  0.  0.  0.
274  2.73  0.  0.  0.
275  2.74  0.  0.  0.
276  2.75  0.  0.  0.
277  2.76  0.  0.  0.
278  2.77  0.  0.  0.
279  2.78  0.  0.  0.
280  2.79  0.  0.  0.
281  2.80  0.  0.  0.
282  2.81  0.  0.  0.
283  2.82  0.  0.  0.
284  2.83  0.  0.  0.
285  2.84  0.  0.  0.
286  2.85  0.  0.  0.
287  2.86  0.  0.  0.
288  2.87  0.  0.  0.
289  2.88  0.  0.  0.
290  2.89  0.  0.  0.
291  2.90  0.  0.  0.
292  2.91  0.  0.  0.
293  2.92  0.  0.  0.
294  2.93  0.  0.  0.
295  2.94  0.  0.  0.
296  2.95  0.  0.  0.
297  2.96  0.  0.  0.
298  2.97  0.  0.  0.
299  2.98  0.  0.  0.
300  2.99  0.  0.  0.
301  3.00  0.  0.  0.
302  3.01  0.  0.  0.
303  3.02  0.  0.  0.
304  3.03  0.  0.  0.
305  3.04  0.  0.  0.
306  3.05  0.  0.  0.
307  3.06  0.  0.  0.
308  3.07  0.  0.  0.
309  3.08  0.  0.  0.
310  3.09  0.  0.  0.
311  3.10  0.  0.  0.
312  3.11  0.  0.  0.
313  3.12  0.  0.  0.
314  3.13  0.  0.  0.
315  3.14  0.  0.  0.
316  3.15  0.  0.  0.
317  3.16  0.  0.  0.
318  3.17  0.  0.  0.
319  3.18  0.  0.  0.
320  3.19  0.  0.  0.
321  3.20  0.  0.  0.
322  3.21  0.  0.  0.
323  3.22  0.  0.  0.
324  3.23  0.  0.  0.
325  3.24  0.  0.  0.
326  3.25  0.  0.  0.
327  3.26  0.  0.  0.
328  3.27  0.  0.  0.
329  3.28  0.  0.  0.
330  3.29  0.  0.  0.
331  3.30  0.  0.  0.
332  3.31  0.  0.  0.
333  3.32  0.  0.  0.
334  3.33  0.  0.  0.
335  3.34  0.  0.  0.
336  3.35  0.  0.  0.
337  3.36  0.  0.  0.
338  3.37  0.  0.  0.
339  3.38  0.  0.  0.
340  3.39  0.  0.  0.
341  3.40  0.  0.  0.
342  3.41  0.  0.  0.
343  3.42  0.  0.  0.
344  3.43  0.  0.  0.
345  3.44  0.  0.  0.
346  3.45  0.  0.  0.
347  3.46  0.  0.  0.
348  3.47  0.  0.  0.
349  3.48  0.  0.  0.
350  3.49  0.  0.  0.
351  3.50  0.  0.  0.
352  3.51  0.  0.  0.
353  3.52  0.  0.  0.
354  3.53  0.  0.  0.
355  3.54  0.  0.  0.
356  3.55  0.  0.  0.
357  3.56  0.  0.  0.
358  3.57  0.  0.  0.
359  3.58  0.  0.  0.
360  3.59  0.  0.  0.
361  3.60  0.  0.  0.
362  3.61  0.  0.  0.
363  3.62  0.  0.  0.
364  3.63  0.  0.  0.
365  3.64  0.  0.  0.
366  3.65  0.  0.  0.
367  3.66  0.  0.  0.
368  3.67  0.  0.  0.
369  3.68  0.  0.  0.
370  3.69  0.  0.  0.
371  3.70  0.  0.  0.
372  3.71  0.  0.  0.
373  3.72  0.  0.  0.
374  3.73  0.  0.  0.
375  3.74  0.  0.  0.
376  3.75  0.  0.  0.
377  3.76  0.  0.  0.
378  3.77  0.  0.  0.
379  3.78  0.  0.  0.
380  3.79  0.  0.  0.
381  3.80  0.  0.  0.
382  3.81  0.  0.  0.
383  3.82  0.  0.  0.
384  3.83  0.  0.  0.
385  3.84  0.  0.  0.
386  3.85  0.  0.  0.
387  3.86  0.  0.  0.
388  3.87  0.  0.  0.
389  3.88  0.  0.  0.
390  3.89  0.  0.  0.
391  3.90  0.  0.  0.
392  3.91  0.  0.  0.
393  3.92  0.  0.  0.
394  3.93  0.  0.  0.
395  3.94  0.  0.  0.
396  3.95  0.  0.  0.
397  3.96  0.  0.  0.
398  3.97  0.  0.  0.
399  3.98  0.  0.  0.
400  3.99  0.  0.  0.
401  4.00  0.  0.  0.
402  4.01  0.  0.  0.
403  4.02  0.  0.  0.
404  4.03  0.  0.  0.
405  4.04  0.  0.  0.
406  4.05  0.  0.  0.
407  4.06  0.  0.  0.
408  4.07  0.  0.  0.
409  4.08  0.  0.  0.
410  4.09  0.  0.  0.
411  4.10  0.  0.  0.
412  4.11  0.  0.  0.
413  4.12  0.  0.  0.
414  4.13  0.  0.  0.
415  4.14  0.  0.  0.
416  4.15  0.  0.  0.
417  4.16  0.  0.  0.
418  4.17  0.  0.  0.
419  4.18  0.  0.  0.
420  4.19  0.  0.  0.
421  4.20  0.  0.  0.
422  4.21  0.  0.  0.
423  4.22  0.  0.  0.
424  4.23  0.  0.  0.
425  4.24  0.  0.  0.
426  4.25  0.  0.  0.
427  4.26  0.  0.  0.
428  4.27  0.  0.  0.
429  4.28  0.  0.  0.
430  4.29  0.  0.  0.
431  4.30  0.  0.  0.
432  4.31  0.  0.  0.
433  4.32  0.  0.  0.
434  4.33  0.  0.  0.
435  4.34  0.  0.  0.
436  4.35  0.  0.  0.
437  4.36  0.  0.  0.
438  4.37  0.  0.  0.
439  4.38  0.  0.  0.
440  4.39  0.  0.  0.
441  4.40  0.  0.  0.
442  4.41  0.  0.  0.
443  4.42  0.  0.  0.
444  4.43  0.  0.  0.
445  4.44  0.  0.  0.
446  4.45  0.  0.  0.
447  4.46  0.  0.  0.
448  4.47  0.  0.  0.
449  4.48  0.  0.  0.
450  4.49  0.  0.  0.
451  4.50  0.  0.  0.
452  4.51  0.  0.  0.
453  4.52  0.  0.  0.
454  4.53  0.  0.  0.
455  4.54  0.  0.  0.
456  4.55  0.  0.  0.
457  4.56  0.  0.  0.
458  4.57  0.  0.  0.
459  4.58  0.  0.  0.
460  4.59  0.  0.  0.
461  4.60  0.  0.  0.
462  4.61  0.  0.  0.
463  4.62  0.  0.  0.
464  4.63  0.  0.  0.
465  4.64  0.  0.  0.
466  4.65  0.  0.  0.
467  4.66  0.  0.  0.
468  4.67  0.  0.  0.
469  4.68  0.  0.  0.
470  4.69  0.  0.  0.
471  4.70  0.  0.  0.
472  4.71  0.  0.  0.
473  4.72  0.  0.  0.
474  4.73  0.  0.  0.
475  4.74  0.  0.  0.
476  4.75  0.  0.  0.
477  4.76  0.  0.  0.
478  4.77  0.  0.  0.
479  4.78  0.  0.  0.
480  4.79  0.  0.  0.
481  4.80  0.  0.  0.
482  4.81  0.  0.  0.
483  4.82  0.  0.  0.
484  4.83  0.  0.  0.
485  4.84  0.  0.  0.
486  4.85  0.  0.  0.
487  4.86  0.  0.  0.
488  4.87  0.  0.  0.
489  4.88  0.  0.  0.
490  4.89  0.  0.  0.
491  4.90  0.  0.  0.
492  4.91  0.  0.  0.
493  4.92  0.  0.  0.
494  4.93  0.  0.  0.
495  4.94  0.  0.  0.
496  4.95  0.  0.  0.
497  4.96  0.  0.  0.
498  4.97  0.  0.  0.
499  4.98  0.  0.  0.
500  4.99  0.  0.  0.
501  5.00  0.  0.  0.
502  5.01  0.  0.  0.
503  5.02  0.  0.  0.
504  5.03  0.  0.  0.
505  5.04  0.  0.  0.
506  5.05  0.  0.  0.
507  5.06  0.  0.  0.
508  5.07  0.  0.  0.
509  5.08  0.  0.  0.
510  5.09  0.  0.  0.
511  5.10  0.  0.  0.
512  5.11  0.  0.  0.
513  5.12  0.  0.  0.
514  5.13  0.  0.  0.
515  5.14  0.  0.  0.
516  5.15  0.  0.  0.
517  5.16  0.  0.  0.
518  5.17  0.  0.  0.
519  5.18  0.  0.  0.
520  5.19  0.  0.  0.
521  5.20  0.  0.  0.
522  5.21  0.  0.  0.
523  5.22  0.  0.  0.
524  5.23  0.  0.  0.
525  5.24  0.  0.  0.
526  5.25  0.  0.  0.
527  5.26  0.  0.  0.
528  5.27  0.  0.  0.
529  5.28  0.  0.  0.
530  5.29  0.  0.  0.
531  5.30  0.  0.  0.
532  5.31  0.  0.  0.
533  5.32  0.  0.  0.
534  5.33  0.  0.  0.
535  5.34  0.  0.  0.
536  5.35  0.  0.  0.
537  5.36  0.  0.  0.
538  5.37  0.  0.  0.
539  5.38  0.  0.  0.
540  5.39  0.  0.  0.
541  5.40  0.  0.  0.
542  5.41  0.  0.  0.
543  5.42  0.  0.  0.
544  5.43  0.  0.  0.
545  5.44  0.  0.  0.
546  5.45  0.  0.  0.
547  5.46  0.  0.  0.
548  5.47  0.  0.  0.
549  5.48  0.  0.  0.
550  5.49  0.  0.  0.
551  5.50  0.  0.  0.
552  5.51  0.  0.  0.
553  5.52  0.  0.  0.
554  5.53  0.  0.  0.
555  5.54  0.  0.  0.
556  5.55  0.  0.  0.
557  5.56  0.  0.  0.
558  5.57  0.  0.  0.
559  5.58  0.  0.  0.
560  5.59  0.  0.  0.
561  5.60  0.  0.  0.
562  5.61  0.  0.  0.
563  5.62  0.  0.  0.
564  5.63  0.  0.  0.
565  5.64  0.  0.  0.
566  5.65  0.  0.  0.
567  5.66  0.  0.  0.
568  5.67  0.  0.  0.
569  5.68  0.  0.  0.
570  5.69  0.  0.  0.
571  5.70  0.  0.  0.
572  5.71  0.  0.  0.
573  5.72  0.  0.  0.
574  5.73  0.  0.  0.
575  5.74  0.  0.  0.
576  5.75  0.  0.  0.
577  5.76  0.  0.  0.
578  5.77  0.  0.  0.
579  5.78  0.  0.  0.
580  5.79  0.  0.  0.
581  5.80  0.  0.  0.
582  5.81  0.  0.  0.
583  5.82  0.  0.  0.
584  5.83  0.  0.  0.
585  5.84  0.  0.  0.
586  5.85  0.  0.  0.
587  5.86  0.  0.  0.
588  5.87  0.  0.  0.
589  5.88  0.  0.  0.
590  5.89  0.  0.  0.
591  5.90  0.  0.  0.
592  5.91  0.  0.  0.
593  5.92  0.  0.  0.
594  5.93  0.  0.  0.
595  5.94  0.  0.  0.
596  5.95  0.  0.  0.
597  5.96  0.  0.  0.
598  5.97  0.  0.  0.
599  5.98  0.  0.  0.
600  5.99  0.  0.  0.
1                         9.7132947372692E+00 -1.2190525248084E+00
1  0.0000000000000E+00  1.5117724017077E-09 -7.1475302667592E-10
2  1.0000000000000E-02  2.9880611455945E-03 -3.2640639080569E-06
3  2.0000000000000E-02  1.1932352120166E-02 -1.1074761033080E-05
4  3.0000000000000E-02  2.6773327098306E-02 -1.7510483481260E-05
5  4.0000000000000E-02  4.7412180818205E-02 -1.2777700892711E-05
6  5.0000000000000E-02  7.3711502603155E-02  1.6676834044079E-05
7  6.0000000000000E-02  1.0549618669299E-01  8.8011998639190E-05
8  7.0000000000000E-02  1.4255459358722E-01  2.2179924804198E-04
9  8.0000000000000E-02  1.8463995558973E-01  4.4179422886093E-04
10  9.0000000000000E-02  2.3147201823712E-01  7.7467731911629E-04
11  1.0000000000000E-01  2.8273890779159E-01  1.2497678850682E-03
12  1.1000000000000E-01  3.3809921349087E-01  1.8987174631720E-03
13  1.2000000000000E-01  3.9718427177686E-01  2.7551873712897E-03
14  1.3000000000000E-01  4.5960063828023E-01  3.8545164204352E-03
15  1.4000000000000E-01  5.2493273192951E-01  5.2333844329076E-03
16  1.5000000000000E-01  5.9274563419138E-01  6.9294771740201E-03
17  1.6000000000000E-01  6.6258802514624E-01  8.9811580752383E-03
18  1.7000000000000E-01  7.3399523687440E-01  1.1427151772095E-02
19  1.8000000000000E-01  8.0649240348847E-01  1.4306244009134E-02
20  1.9000000000000E-01  8.7959768611207E-01  1.7657001888036E-02
21  2.0000000000000E-01  9.5282555019235E-01  2.1517517767779E-02
22  2.1000000000000E-01  1.0256900717592E+00  2.5925179383332E-02
23  2.2000000000000E-01  1.0977082486260E+00  3.0916467950200E-02
24  2.3000000000000E-01  1.1684032920806E+00  3.6526785185424E-02
25  2.4000000000000E-01  1.2373078743581E+00  4.2790309322077E-02
26  2.5000000000000E-01  1.3039673071299E+00  4.9739879344721E-02
27  2.6000000000000E-01  1.3679426264056E+00  5.7406905849013E-02
28  2.7000000000000E-01  1.4288135596249E+00  6.5821306150032E-02
29  2.8000000000000E-01  1.4861813513378E+00  7.5011460550908E-02
30  2.9000000000000E-01  1.5396714247236E+00  8.5004186054098E-02
31  3.0000000000000E-01  1.5889358572972E+00  9.5824723268716E-02
32  3.1000000000000E-01  1.6336556504799E+00  1.0749673185305E-01
33  3.2000000000000E-01  1.6735427742819E+00  1.2004228954336E-01
34  3.3000000000000E-01  1.7083419701304E+00  1.3348188966723E-01
35  3.4000000000000E-01  1.7378322968770E+00  1.4783443202781E-01
36  3.5000000000000E-01  1.7618284072171E+00  1.6311720217707E-01
37  3.6000000000000E-01  1.7801815441174E+00  1.7934583437030E-01
38  3.7000000000000E-01  1.7927802493742E+00  1.9653425390731E-01
39  3.8000000000000E-01  1.7995507790674E+00  2.1469459510992E-01
40  3.9000000000000E-01  1.8004572234153E+00  2.3383709185015E-01
41  4.0000000000000E-01  1.7955013313410E+00  2.5396993831587E-01
42  4.1000000000000E-01  1.7847220428933E+00  2.7509911856388E-01
43  4.2000000000000E-01  1.7681947354928E+00  2.9722820434620E-01
44  4.3000000000000E-01  1.7460301927608E+00  3.2035812168375E-01
45  4.4000000000000E-01  1.7183733073976E+00  3.4448688768002E-01
46  4.5000000000000E-01  1.6854015321693E+00  3.6960932009308E-01
47  4.6000000000000E-01  1.6473230955096E+00  3.9571672319432E-01
48  4.7000000000000E-01  1.6043750005067E+00  4.2279655441201E-01
49  4.8000000000000E-01  1.5568208280929E+00  4.5083207716522E-01
50  4.9000000000000E-01  1.5049483670647E+00  4.7980200611573E-01
51  5.0000000000000E-01  1.4490670950977E+00  5.0968015178249E-01
52  5.1000000000000E-01  1.3895055361763E+00  5.4043507205541E-01
53  5.2000000000000E-01  1.3266085207954E+00  5.7202973859706E-01
54  5.3000000000000E-01  1.2607343759247E+00  6.0442122641836E-01
55  5.4000000000000E-01  1.1922520720152E+00  6.3756043504669E-01
56  5.5000000000000E-01  1.1215383543008E+00  6.7139184966511E-01
57  5.6000000000000E-01  1.0489748852824E+00  7.0585335038570E-01
58  5.7000000000000E-01  9.7494542459873E-01  7.4087607742793E-01
59  5.8000000000000E-01  8.9983307149492E-01  7.7638435940815E-01
60  5.9000000000000E-01  8.2401759381286E-01  8.1229571121587E-01
61  6.0000000000000E-01  7.4787286586858E-01  8.4852090706713E-01
62  6.1000000000000E-01  6.7176443577689E-01  8.8496413329808E-01
63  6.2000000000000E-01  5.9604724076099E-01  9.2152322431176E-01
64  6.3000000000000E-01  5.2106348677762E-01  9.5808998383508E-01
65  6.4000000000000E-01  4.4714070643113E-01  9.9455059230628E-01
66  6.5000000000000E-01  3.7459000668015E-01  1.0307860998171E+00
67  6.6000000000000E-01  3.0370451529658E-01  1.0666730026061E+00
68  6.7000000000000E-01  2.3475803245789E-01  1.1020838996655E+00
69  6.8000000000000E-01  1.6800389127966E-01  1.1368882246110E+00
70  6.9000000000000E-01  1.0367402856373E-01  1.1709530465994E+00
71  7.0000000000000E-01  4.1978264587165E-02  1.2041439327885E+00
72  7.1000000000000E-01 -1.6896211578183E-02  1.2363258636420E+00
73  7.2000000000000E-01 -7.2785156911817E-02  1.2673641913172E+00
74  7.3000000000000E-01 -1.2554739716134E-01  1.2971256304461E+00
75  7.4000000000000E-01 -1.7506476693925E-01  1.3254792698654E+00
76  7.5000000000000E-01 -2.2124187828792E-01  1.3522975932670E+00
77  7.6000000000000E-01 -2.6400573013713E-01  1.3774574963543E+00
78  7.7000000000000E-01 -3.0330517215873E-01  1.4008412879018E+00
79  7.8000000000000E-01 -3.3911023734052E-01  1.4223376621339E+00
80  7.9000000000000E-01 -3.7141135815291E-01  1.4418426300657E+00
81  8.0000000000000E-01 -4.0021848146997E-01  1.4592603978813E+00
82  8.1000000000000E-01 -4.2556009743828E-01  1.4745041810545E+00
83  8.2000000000000E-01 -4.4748219727408E-01  1.4874969437389E+00
84  8.3000000000000E-01 -4.6604717452847E-01  1.4981720539458E+00
85  8.4000000000000E-01 -4.8133268371063E-01  1.5064738461864E+00
86  8.5000000000000E-01 -4.9343046932574E-01  1.5123580845412E+00
87  8.6000000000000E-01 -5.0244517739240E-01  1.5157923205288E+00
88  8.7000000000000E-01 -5.0849316038371E-01  1.5167561416450E+00
89  8.8000000000000E-01 -5.1170128531807E-01  1.5152413080008E+00
90  8.9000000000000E-01 -5.1220575344115E-01  1.5112517760909E+00
91  9.0000000000000E-01 -5.1015093862231E-01  1.5048036103256E+00
92  9.1000000000000E-01 -5.0568825026938E-01  1.4959247845495E+00
93  9.2000000000000E-01 -4.9897502527614E-01  1.4846548773033E+00
94  9.3000000000000E-01 -4.9017345228619E-01  1.4710446660490E+00
95  9.4000000000000E-01 -4.7944953041399E-01  1.4551556269399E+00
96  9.5000000000000E-01 -4.6697206353169E-01  1.4370593479505E+00