<UPF version="2.0.1">
<PP_INFO>
Generated in analytical, separable form
Author: Goedecker/Hartwigsen/Hutter/Teter
Generation date: Phys.Rev.B58, 3641 (1998); B54, 1703 (1996)
Pseudopotential type: NC
Element: Ge
Functional: SLA-PW-PBX-PBC

Suggested minimum cutoff for wavefunctions:   0. Ry
Suggested minimum cutoff for charge density:   0. Ry
The Pseudo was generated with a Non-Relativistic Calculation
Local Potential: unknown format, L component and cutoff radius: -3   0.0000

Valence configuration:
nl pn  l   occ       Rcut    Rcut US       E pseu

Generation configuration: not available.
Converted from CPMD format using cpmd2upf v.5.0.1 - PG 10Jul2012
Contains atomic orbitals generated by ld1.x - use with care
</PP_INFO>
<!--                               -->
<!-- END OF HUMAN READABLE SECTION -->
<!--                               -->
<PP_HEADER generated="Generated in analytical, separable form"
author="Goedecker/Hartwigsen/Hutter/Teter"
date="Phys.Rev.B58, 3641 (1998); B54, 1703 (1996)"
comment="Contains atomic orbitals generated by ld1.x - use with care"
element="Ge"
pseudo_type="NC"
relativistic="no"
is_ultrasoft="F"
is_paw="F"
is_coulomb="F"
has_so="F"
has_wfc="F"
has_gipaw="F"
paw_as_gipaw="F"
core_correction="F"
functional="SLA-PW-PBX-PBC"
z_valence="4.000000000000000E+000"
total_psenergy="0.000000000000000E+000"
wfc_cutoff="0.000000000000000E+000"
rho_cutoff="0.000000000000000E+000"
l_max="2"
l_max_rho="0"
l_local="-3"
mesh_size="1207"
number_of_wfc=" 3"
number_of_proj="6"/>
<PP_MESH dx="1.250000000000000E-002" mesh="1207" xmin="-7.000000000000000E+000" rmax="1.004102302714137E+002"
zmesh="3.200000000000000E+001">
<PP_R type="real" size="1207" columns="4">
2.849631142357863E-005  2.885475089590694E-005  2.921769898176819E-005  2.958521239253919E-005
2.995734855293812E-005  3.033416560999715E-005  3.071572244214808E-005  3.110207866842223E-005
3.149329465776595E-005  3.188943153847358E-005  3.229055120773866E-005  3.269671634132558E-005
3.310799040336282E-005  3.352443765625928E-005  3.394612317074556E-005  3.437311283604119E-005
3.480547337015010E-005  3.524327233028539E-005  3.568657812342523E-005  3.613546001700181E-005
3.658998814972420E-005  3.705023354253790E-005  3.751626810972190E-005  3.798816467012546E-005
3.846599695854628E-005  3.894983963725155E-005  3.943976830764420E-005  3.993585952207576E-005
4.043819079580775E-005  4.094684061912375E-005  4.146188846959348E-005  4.198341482449146E-005
4.251150117337168E-005  4.304623003080053E-005  4.358768494924996E-005  4.413595053215255E-005
4.469111244712108E-005  4.525325743933424E-005  4.582247334509072E-005  4.639884910553396E-005
4.698247478054914E-005  4.757344156283536E-005  4.817184179215470E-005  4.877776896976038E-005
4.939131777300678E-005  5.001258407014263E-005  5.064166493529083E-005  5.127865866361644E-005
5.192366478668543E-005  5.257678408801691E-005  5.323811861883044E-005  5.390777171399195E-005
5.458584800815999E-005  5.527245345213502E-005  5.596769532941468E-005  5.667168227295673E-005
5.738452428215335E-005  5.810633274001878E-005  5.883722043059304E-005  5.957730155656489E-005
6.032669175711592E-005  6.108550812598960E-005  6.185386922978740E-005  6.263189512649497E-005
6.341970738424169E-005  6.421742910029559E-005  6.502518492029779E-005  6.584310105773857E-005
6.667130531367838E-005  6.750992709671733E-005  6.835909744321516E-005  6.921894903776615E-005
7.008961623393135E-005  7.097123507523147E-005  7.186394331640425E-005  7.276788044492856E-005
7.368318770281978E-005  7.461000810869917E-005  7.554848648014073E-005  7.649876945629947E-005
7.746100552082370E-005  7.843534502505620E-005  7.942194021152682E-005  8.042094523774062E-005
8.143251620026557E-005  8.245681115912255E-005  8.349399016248283E-005  8.454421527167583E-005
8.560765058651151E-005  8.668446227092152E-005  8.777481857892227E-005  8.887888988090524E-005
8.999684869025759E-005  9.112886969031774E-005  9.227512976167021E-005  9.343580800978313E-005
9.461108579299423E-005  9.580114675084822E-005  9.700617683279090E-005  9.822636432722439E-005
9.946189989092709E-005  1.007129765788446E-004  1.019797898742546E-004  1.032625377193119E-004
1.045614205459773E-004  1.058766413073347E-004  1.072084055093042E-004  1.085569212427517E-004
1.099223992160040E-004  1.113050527877728E-004  1.127050980004916E-004  1.141227536140732E-004
1.155582411400916E-004  1.170117848763931E-004  1.184836119421440E-004  1.199739523133176E-004
1.214830388586291E-004  1.230111073759214E-004  1.245583966290091E-004  1.261251483849862E-004
1.277116074520021E-004  1.293180217175136E-004  1.309446421870181E-004  1.325917230232731E-004
1.342595215860106E-004  1.359482984721490E-004  1.376583175565127E-004  1.393898460330626E-004
1.411431544566458E-004  1.429185167852710E-004  1.447162104229139E-004  1.465365162628628E-004
1.483797187316087E-004  1.502461058332872E-004  1.521359691946801E-004  1.540496041107829E-004
1.559873095909443E-004  1.579493884055879E-004  1.599361471335205E-004  1.619478962098351E-004
1.639849499744183E-004  1.660476267210649E-004  1.681362487472131E-004  1.702511424043040E-004
1.723926381487741E-004  1.745610705936906E-004  1.767567785610346E-004  1.789801051346433E-004
1.812313977138171E-004  1.835110080676016E-004  1.858192923897529E-004  1.881566113543925E-004
1.905233301723637E-004  1.929198186482971E-004  1.953464512383925E-004  1.978036071089296E-004
2.002916701955120E-004  2.028110292630590E-004  2.053620779665506E-004  2.079452149125367E-004
2.105608437214208E-004  2.132093730905259E-004  2.158912168579541E-004  2.186067940672505E-004
2.213565290328787E-004  2.241408514065218E-004  2.269601962442154E-004  2.298150040743261E-004
2.327057209663858E-004  2.356327986007897E-004  2.385966943393738E-004  2.415978712968772E-004
2.446367984133054E-004  2.477139505272032E-004  2.508298084498486E-004  2.539848590403816E-004
2.571795952818759E-004  2.604145163583690E-004  2.636901277328605E-004  2.670069412262919E-004
2.703654750975198E-004  2.737662541242946E-004  2.772098096852581E-004  2.806966798429726E-004
2.842274094279942E-004  2.878025501240044E-004  2.914226605540102E-004  2.950883063676316E-004
2.988000603294848E-004  3.025585024086776E-004  3.063642198694321E-004  3.102178073628441E-004
3.141198670197996E-004  3.180710085450587E-004  3.220718493125231E-004  3.261230144617033E-004
3.302251369953955E-004  3.343788578785915E-004  3.385848261386301E-004  3.428436989666087E-004
3.471561418200721E-004  3.515228285269895E-004  3.559444413910430E-004  3.604216712982385E-004
3.649552178248576E-004  3.695457893467693E-004  3.741941031501132E-004  3.789008855433781E-004
3.836668719708890E-004  3.884928071277213E-004  3.933794450760624E-004  3.983275493630334E-004
4.033378931399960E-004  4.084112592833591E-004  4.135484405169040E-004  4.187502395356509E-004
4.240174691312792E-004  4.293509523191295E-004  4.347515224668010E-004  4.402200234243664E-004
4.457573096562267E-004  4.513642463746212E-004  4.570417096748194E-004  4.627905866720129E-004
4.686117756399282E-004  4.745061861511858E-004  4.804747392194198E-004  4.865183674431903E-004
4.926380151517031E-004  4.988346385523628E-004  5.051092058801836E-004  5.114626975490759E-004
5.178961063050392E-004  5.244104373812804E-004  5.310067086552833E-004  5.376859508078557E-004
5.444492074841723E-004  5.512975354568489E-004  5.582320047910641E-004  5.652536990117593E-004
5.723637152729431E-004  5.795631645291214E-004  5.868531717088878E-004  5.942348758906955E-004
6.017094304808416E-004  6.092780033936873E-004  6.169417772341494E-004  6.247019494824822E-004
6.325597326813872E-004  6.405163546254768E-004  6.485730585531169E-004  6.567311033406885E-004
6.649917636992867E-004  6.733563303738991E-004  6.818261103450867E-004  6.904024270332013E-004
6.990866205051750E-004  7.078800476839054E-004  7.167840825602791E-004  7.258001164078617E-004
7.349295580002846E-004  7.441738338313712E-004  7.535343883380274E-004  7.630126841259386E-004
7.726102021981062E-004  7.823284421862546E-004  7.921689225851545E-004  8.021331809898886E-004
8.122227743361046E-004  8.224392791432911E-004  8.327842917611089E-004  8.432594286188277E-004
8.538663264778928E-004  8.646066426876743E-004  8.754820554444319E-004  8.864942640535344E-004
8.976449891949823E-004  9.089359731922649E-004  9.203689802846028E-004  9.319457969026159E-004
9.436682319474532E-004  9.555381170734405E-004  9.675573069742779E-004  9.797276796728403E-004
9.920511368146235E-004  1.004529603964877E-003  1.017165030909482E-003  1.029959391959605E-003
1.042914686260190E-003  1.056032938102330E-003  1.069316197239564E-003  1.082766539208157E-003
1.096386065651407E-003  1.110176904648030E-003  1.124141211044677E-003  1.138281166792632E-003
1.152598981288750E-003  1.167096891720676E-003  1.181777163416409E-003  1.196642090198271E-003
1.211693994741313E-003  1.226935228936244E-003  1.242368174256916E-003  1.257995242132433E-003
1.273818874323945E-003  1.289841543306173E-003  1.306065752653747E-003  1.322494037432385E-003
1.339128964595006E-003  1.355973133382824E-003  1.373029175731482E-003  1.390299756682298E-003
1.407787574798682E-003  1.425495362587794E-003  1.443425886927504E-003  1.461581949498718E-003
1.479966387223154E-003  1.498582072706609E-003  1.517431914687812E-003  1.536518858492924E-003
1.555845886495748E-003  1.575416018583731E-003  1.595232312629825E-003  1.615297864970293E-003
1.635615810888513E-003  1.656189325104870E-003  1.677021622272817E-003  1.698115957481172E-003
1.719475626762726E-003  1.741103967609263E-003  1.763004359493043E-003  1.785180224394853E-003
1.807635027338703E-003  1.830372276933235E-003  1.853395525919961E-003  1.876708371728374E-003
1.900314457038062E-003  1.924217470347882E-003  1.948421146552295E-003  1.972929267524950E-003
1.997745662709612E-003  2.022874209718517E-003  2.048318834938261E-003  2.074083514143300E-003
2.100172273117181E-003  2.126589188281569E-003  2.153338387333206E-003  2.180424049888865E-003
2.207850408138425E-003  2.235621747506164E-003  2.263742407320359E-003  2.292216781491317E-003
2.321049319197935E-003  2.350244525582888E-003  2.379806962456574E-003  2.409741249009898E-003
2.440052062536037E-003  2.470744139161271E-003  2.501822274585017E-003  2.533291324829165E-003
2.565156206996838E-003  2.597421900040705E-003  2.630093445540950E-003  2.663175948493026E-003
2.696674578105329E-003  2.730594568606888E-003  2.764941220065229E-003  2.799719899214522E-003
2.834936040294141E-003  2.870595145897779E-003  2.906702787833235E-003  2.943264607993022E-003
2.980286319235927E-003  3.017773706279651E-003  3.055732626604690E-003  3.094169011369573E-003
3.133088866337617E-003  3.172498272815346E-003  3.212403388602700E-003  3.252810448955209E-003
3.293725767558262E-003  3.335155737513632E-003  3.377106832338416E-003  3.419585606976529E-003
3.462598698822935E-003  3.506152828760743E-003  3.550254802211368E-003  3.594911510197888E-003
3.640129930421780E-003  3.685917128353204E-003  3.732280258334990E-003  3.779226564700522E-003
3.826763382905686E-003  3.874898140675038E-003  3.923638359162414E-003  3.972991654126114E-003
4.022965737118882E-003  4.073568416692866E-003  4.124807599619694E-003  4.176691292125952E-003
4.229227601144148E-003  4.282424735579452E-003  4.336291007592353E-003  4.390834833897442E-003
4.446064737078551E-003  4.501989346920416E-003  4.558617401757107E-003  4.615957749837402E-003
4.674019350707347E-003  4.732811276610206E-003  4.792342713904016E-003  4.852622964496969E-003
4.913661447300864E-003  4.975467699702822E-003  5.038051379055525E-003  5.101422264186201E-003
5.165590256924580E-003  5.230565383650080E-003  5.296357796858442E-003  5.362977776748087E-003
5.430435732826411E-003  5.498742205536299E-003  5.567907867903078E-003  5.637943527202214E-003
5.708860126647959E-003  5.780668747103260E-003  5.853380608811160E-003  5.927007073147979E-003
6.001559644398568E-003  6.077049971553862E-003  6.153489850131065E-003  6.230891224016726E-003
6.309266187332983E-003  6.388626986327315E-003  6.468986021286021E-003  6.550355848471808E-003
6.632749182085724E-003  6.716178896253771E-003  6.800658027038530E-003  6.886199774476060E-003
6.972817504638434E-003  7.060524751722217E-003  7.149335220163203E-003  7.239262786777777E-003
7.330321502931178E-003  7.422525596733068E-003  7.515889475260695E-003  7.610427726810025E-003
7.706155123175205E-003  7.803086621956675E-003  7.901237368898329E-003  8.000622700254067E-003
8.101258145184113E-003  8.203159428181480E-003  8.306342471528958E-003  8.410823397786997E-003
8.516618532312897E-003  8.623744405811663E-003  8.732217756918981E-003  8.842055534816654E-003
8.953274901880942E-003  9.065893236364232E-003  9.179928135110404E-003  9.295397416304396E-003
9.412319122256319E-003  9.530711522220604E-003  9.650593115250624E-003  9.771982633089184E-003
9.894899043095417E-003  1.001936155120846E-002  1.014538960494843E-002  1.027300289645513E-002
1.040222136556499E-002  1.053306520292670E-002  1.066555485315606E-002  1.079971101803046E-002
1.093555465972361E-002  1.107310700408090E-002  1.121238954393599E-002  1.135342404246911E-002
1.149623253660758E-002  1.164083734046916E-002  1.178726104884866E-002  1.193552654074841E-002
1.208565698295317E-002  1.223767583364997E-002  1.239160684609353E-002  1.254747407231771E-002
1.270530186689373E-002  1.286511489073558E-002  1.302693811495339E-002  1.319079682475518E-002
1.335671662339771E-002  1.352472343618711E-002  1.369484351452967E-002  1.386710344003375E-002
1.404153012866318E-002  1.421815083494293E-002  1.439699315621769E-002  1.457808503696402E-002
1.476145477315671E-002  1.494713101669013E-002  1.513514277985508E-002  1.532551943987207E-002
1.551829074348155E-002  1.571348681159191E-002  1.591113814398592E-002  1.611127562408638E-002
1.631393052378175E-002  1.651913450831242E-002  1.672691964121845E-002  1.693731838934960E-002
1.715036362793833E-002  1.736608864573661E-002  1.758452715021737E-002  1.780571327284135E-002
1.802968157439021E-002  1.825646705036675E-002  1.848610513646298E-002  1.871863171409705E-002
1.895408311601980E-002  1.919249613199181E-002  1.943390801453189E-002  1.967835648473782E-002
1.992587973818042E-002  2.017651645087163E-002  2.043030578530773E-002  2.068728739658857E-002
2.094750143861374E-002  2.121098857035671E-002  2.147778996221789E-002  2.174794730245757E-002
2.202150280370980E-002  2.229849920957821E-002  2.257897980131476E-002  2.286298840458257E-002
2.315056939630369E-002  2.344176771159319E-002  2.373662885078028E-002  2.403519888651784E-002
2.433752447098141E-002  2.464365284315865E-002  2.495363183623054E-002  2.526750988504540E-002
2.558533603368694E-002  2.590715994313752E-002  2.623303189903774E-002  2.656300281954370E-002
2.689712426328307E-002  2.723544843741119E-002  2.757802820576862E-002  2.792491709714113E-002
2.827616931362375E-002  2.863183973908994E-002  2.899198394776729E-002  2.935665821292113E-002
2.972591951564732E-002  3.009982555377569E-002  3.047843475088541E-002  3.086180626543381E-002
3.125000000000001E-002  3.164307661064484E-002  3.204109751638842E-002  3.244412490880705E-002
3.285222176175077E-002  3.326545184118312E-002  3.368387971514475E-002  3.410757076384226E-002
3.453659118986400E-002  3.497100802852440E-002  3.541088915833834E-002  3.585630331162727E-002
3.630732008525886E-002  3.676400995152159E-002  3.722644426913620E-002  3.769469529440566E-002
3.816883619250532E-002  3.864894104891516E-002  3.913508488099578E-002  3.962734364971000E-002
4.012579427149194E-002  4.063051463026536E-002  4.114158358961319E-002  4.165908100510010E-002
4.218308773675011E-002  4.271368566168116E-002  4.325095768689850E-002  4.379498776224918E-002
4.434586089353931E-002  4.490366315581640E-002  4.546848170681881E-002  4.604040480059425E-002
4.661952180128972E-002  4.720592319711479E-002  4.779970061448061E-002  4.840094683231668E-002
4.900975579656779E-002  4.962622263487325E-002  5.025044367143074E-002  5.088251644204721E-002
5.152253970937903E-002  5.217061347836386E-002  5.282683901184663E-002  5.349131884640203E-002
5.416415680835612E-002  5.484545803000936E-002  5.553532896606372E-002  5.623387741025655E-002
5.694121251220343E-002  5.765744479445314E-002  5.838268616975698E-002  5.911704995855532E-002
5.986065090668428E-002  6.061360520330484E-002  6.137603049905774E-002  6.214804592444665E-002
6.292977210845242E-002  6.372133119738176E-002  6.452284687395272E-002  6.533444437662052E-002
6.615625051914611E-002  6.698839371041125E-002  6.783100397448261E-002  6.868421297092821E-002
6.954815401538965E-002  7.042296210041279E-002  7.130877391654077E-002  7.220572787367203E-002
7.311396412268725E-002  7.403362457734815E-002  7.496485293647184E-002  7.590779470638404E-002
7.686259722365471E-002  7.782940967811974E-002  7.880838313619216E-002  7.979967056446650E-002
8.080342685362023E-002  8.181980884261569E-002  8.284897534320650E-002  8.389108716475223E-002
8.494630713934520E-002  8.601480014725330E-002  8.709673314268286E-002  8.819227517986568E-002
8.930159743947391E-002  9.042487325536756E-002  9.156227814167821E-002  9.271398982023339E-002
9.388018824832609E-002  9.506105564683329E-002  9.625677652868853E-002  9.746753772771230E-002
9.869352842780528E-002  9.993494019250866E-002  1.011919669949363E-001  1.024648052480836E-001
1.037536538355172E-001  1.050587141424510E-001  1.063801900872132E-001  1.077182881531086E-001
1.090732174206826E-001  1.104451896003897E-001  1.118344190656744E-001  1.132411228864670E-001
1.146655208631014E-001  1.161078355606596E-001  1.175682923437472E-001  1.190471194117082E-001
1.205445478342805E-001  1.220608115877017E-001  1.235961475912681E-001  1.251507957443539E-001
1.267249989638961E-001  1.283190032223505E-001  1.299330575861253E-001  1.315674142544988E-001
1.332223285990256E-001  1.348980592034389E-001  1.365948679040550E-001  1.383130198306855E-001
1.400527834480646E-001  1.418144305977970E-001  1.435982365408341E-001  1.454044800004835E-001
1.472334432059607E-001  1.490854119364877E-001  1.509606755659463E-001  1.528595271080940E-001
1.547822632623474E-001  1.567291844601426E-001  1.587005949118776E-001  1.606968026544465E-001
1.627181195993704E-001  1.647648615815342E-001  1.668373484085368E-001  1.689359039106615E-001
1.710608559914751E-001  1.732125366790633E-001  1.753912821779113E-001  1.775974329214358E-001
1.798313336251792E-001  1.820933333406711E-001  1.843837855099694E-001  1.867030480208852E-001
1.890514832629047E-001  1.914294581838122E-001  1.938373443470271E-001  1.962755179896615E-001
1.987443600813074E-001  2.012442563835644E-001  2.037755975103161E-001  2.063387789887634E-001
2.089342013212273E-001  2.115622700477275E-001  2.142233958093494E-001  2.169179944124074E-001
2.196464868934155E-001  2.224092995848750E-001  2.252068641818897E-001  2.280396178096198E-001
2.309080030915829E-001  2.338124682188151E-001  2.367534670199015E-001  2.397314590318886E-001
2.427469095720868E-001  2.458002898107780E-001  2.488920768448368E-001  2.520227537722773E-001
2.551928097677392E-001  2.584027401589211E-001  2.616530465039771E-001  2.649442366698868E-001
2.682768249118093E-001  2.716513319534378E-001  2.750682850683629E-001  2.785282181624607E-001
2.820316718573165E-001  2.855791935746977E-001  2.891713376220906E-001  2.928086652793105E-001
2.964917448862041E-001  3.002211519314534E-001  3.039974691424965E-001  3.078212865765809E-001
3.116932017129602E-001  3.156138195462518E-001  3.195837526809689E-001  3.236036214272405E-001
3.276740538977368E-001  3.317956861058128E-001  3.359691620648863E-001  3.401951338890670E-001
3.444742618950501E-001  3.488072147052929E-001  3.531946693524872E-001  3.576373113853477E-001
3.621358349757312E-001  3.666909430271004E-001  3.713033472843564E-001  3.759737684450481E-001
3.807029362719837E-001  3.854915897072582E-001  3.903404769877129E-001  3.952503557618510E-001
4.002219932082201E-001  4.052561661552856E-001  4.103536612028132E-001  4.155152748447746E-001
4.207418135938030E-001  4.260340941072114E-001  4.313929433145969E-001  4.368191985470513E-001
4.423137076679940E-001  4.478773292056543E-001  4.535109324872164E-001  4.592153977746546E-001
4.649916164022764E-001  4.708404909159935E-001  4.767629352143489E-001  4.827598746913133E-001
4.888322463808806E-001  4.949809991034820E-001  5.012070936142399E-001  5.075115027530889E-001
5.138952115967832E-001  5.203592176128172E-001  5.269045308152825E-001  5.335321739226832E-001
5.402431825177391E-001  5.470386052091966E-001  5.539195037956766E-001  5.608869534315828E-001
5.679420427950959E-001  5.750858742582829E-001  5.823195640593443E-001  5.896442424770278E-001
5.970610540072393E-001  6.045711575418693E-001  6.121757265498751E-001  6.198759492606354E-001
6.276730288496148E-001  6.355681836263631E-001  6.435626472248761E-001  6.516576687963568E-001
6.598545132043946E-001  6.681544612226048E-001  6.765588097347521E-001  6.850688719373897E-001
6.936859775450515E-001  7.024114729980195E-001  7.112467216727105E-001  7.201931040947059E-001
7.292520181544601E-001  7.384248793257259E-001  7.477131208867235E-001  7.571181941440934E-001
7.666415686596676E-001  7.762847324800890E-001  7.860491923693242E-001  7.959364740440967E-001
8.059481224122835E-001  8.160857018143118E-001  8.263507962675876E-001  8.367450097140042E-001
8.472699662705596E-001  8.579273104831285E-001  8.687187075834275E-001  8.796458437492080E-001
8.907104263677279E-001  9.019141843025323E-001  9.132588681635923E-001  9.247462505808428E-001
9.363781264811570E-001  9.481563133688105E-001  9.600826516094667E-001  9.721590047177399E-001
9.843872596483735E-001  9.967693270910786E-001  1.009307141769084E+000  1.022002662741443E+000
1.034857873709135E+000  1.047874783325030E+000  1.061055425507736E+000  1.074401859759412E+000
1.087916171487564E+000  1.101600472330893E+000  1.115456900489247E+000  1.129487621057717E+000
1.143694826364938E+000  1.158080736315644E+000  1.172647598737532E+000  1.187397689732493E+000
1.202333314032255E+000  1.217456805358500E+000  1.232770526787517E+000  1.248276871119436E+000
1.263978261252107E+000  1.279877150559682E+000  1.295976023275962E+000  1.312277394882563E+000
1.328783812501963E+000  1.345497855295498E+000  1.362422134866360E+000  1.379559295667664E+000
1.396912015415652E+000  1.414483005508087E+000  1.432275011447922E+000  1.450290813272281E+000
1.468533225986853E+000  1.487005100005741E+000  1.505709321596839E+000  1.524648813332826E+000
1.543826534547819E+000  1.563245481799774E+000  1.582908689338708E+000  1.602819229580804E+000
1.622980213588483E+000  1.643394791556515E+000  1.664066153304239E+000  1.684997528773986E+000
1.706192188535759E+000  1.727653444298264E+000  1.749384649426380E+000  1.771389199465119E+000
1.793670532670195E+000  1.816232130545251E+000  1.839077518385857E+000  1.862210265830343E+000
1.885633987417562E+000  1.909352343151668E+000  1.933369039073998E+000  1.957687827842152E+000
1.982312509316354E+000  2.007246931153184E+000  2.032494989406782E+000  2.058060629137617E+000
2.083947845028913E+000  2.110160682010817E+000  2.136703235892442E+000  2.163579654001833E+000
2.190794135833997E+000  2.218350933707092E+000  2.246254353426846E+000  2.274508754959365E+000
2.303118553112370E+000  2.332088218225031E+000  2.361422276866459E+000  2.391125312542997E+000
2.421201966414403E+000  2.451656938019036E+000  2.482494986008169E+000  2.513720928889541E+000
2.545339645780254E+000  2.577356077169157E+000  2.609775225688790E+000  2.642602156897065E+000
2.675842000068771E+000  2.709499948997028E+000  2.743581262804839E+000  2.778091266766823E+000
2.813035353141309E+000  2.848418982012889E+000  2.884247682145559E+000  2.920527051846614E+000
2.957262759841380E+000  2.994460546158968E+000  3.032126223029170E+000  3.070265675790627E+000
3.108884863810433E+000  3.147989821415285E+000  3.187586658834368E+000  3.227681563154089E+000
3.268280799284820E+000  3.309390710939810E+000  3.351017721626393E+000  3.393168335649678E+000
3.435849139128863E+000  3.479066801026323E+000  3.522828074189663E+000  3.567139796406845E+000
3.612008891474618E+000  3.657442370280372E+000  3.703447331897604E+000  3.750030964695171E+000
3.797200547460468E+000  3.844963450536770E+000  3.893327136974858E+000  3.942299163699130E+000
3.991887182688404E+000  4.042098942171530E+000  4.092942287838085E+000  4.144425164064271E+000
4.196555615154235E+000  4.249341786597030E+000  4.302791926339335E+000  4.356914386074228E+000
4.411717622546156E+000  4.467210198872313E+000  4.523400785880656E+000  4.580298163464724E+000
4.637911221955523E+000  4.696248963510656E+000  4.755320503520926E+000  4.815135072034649E+000
4.875702015199847E+000  4.937030796724613E+000  4.999130999355834E+000  5.062012326376511E+000
5.125684603121933E+000  5.190157778514878E+000  5.255441926620175E+000  5.321547248218786E+000
5.388484072401698E+000  5.456262858183885E+000  5.524894196138514E+000  5.594388810051776E+000
5.664757558598480E+000  5.736011437038750E+000  5.808161578936067E+000  5.881219257896890E+000
5.955195889332193E+000  6.030103032241144E+000  6.105952391017217E+000  6.182755817277049E+000
6.260525311712245E+000  6.339273025964533E+000  6.419011264524480E+000  6.499752486654082E+000
6.581509308333580E+000  6.664294504232689E+000  6.748121009706697E+000  6.833001922817631E+000
6.918950506380849E+000  7.005980190037409E+000  7.094104572352441E+000  7.183337422939970E+000
7.273692684614447E+000  7.365184475569332E+000  7.457827091583114E+000  7.551635008253024E+000
7.646622883256894E+000  7.742805558643448E+000  7.840198063151393E+000  7.938815614557720E+000
8.038673622055468E+000  8.139787688661469E+000  8.242173613654352E+000  8.345847395043192E+000
8.450825232067274E+000  8.557123527727205E+000  8.664758891347944E+000  8.773748141174048E+000
8.884108306997529E+000  8.995856632818846E+000  9.109010579541255E+000  9.223587827699141E+000
9.339606280220643E+000  9.457084065224995E+000  9.576039538855134E+000  9.696491288145825E+000
9.818458133927953E+000  9.941959133769315E+000  1.006701358495239E+001  1.019364102748963E+001
1.032186124717653E+001  1.045169427868329E+001  1.058316040868524E+001  1.071628017903264E+001
1.085107438996046E+001  1.098756410333840E+001  1.112577064596186E+001  1.126571561288430E+001
1.140742087079153E+001  1.155090856141840E+001  1.169620110500851E+001  1.184332120381737E+001
1.199229184565976E+001  1.214313630750152E+001  1.229587815909675E+001  1.245054126667050E+001
1.260714979664798E+001  1.276572821943064E+001  1.292630131321965E+001  1.308889416788762E+001
1.325353218889889E+001  1.342024110127920E+001  1.358904695363527E+001  1.375997612222497E+001
1.393305531507866E+001  1.410831157617236E+001  1.428577228965342E+001  1.446546518411936E+001
1.464741833695053E+001  1.483166017869726E+001  1.501821949752217E+001  1.520712544369836E+001
1.539840753416427E+001  1.559209565713569E+001  1.578822007677591E+001  1.598681143792451E+001
1.618790077088570E+001  1.639151949627689E+001  1.659769942993816E+001  1.680647278790365E+001
1.701787219143529E+001  1.723193067211998E+001  1.744868167703081E+001  1.766815907395329E+001
1.789039715667723E+001  1.811543065035520E+001  1.834329471692842E+001  1.857402496062088E+001
1.880765743350257E+001  1.904422864112274E+001  1.928377554821386E+001  1.952633558446755E+001
1.977194665038294E+001  2.002064712318878E+001  2.027247586283995E+001  2.052747221808937E+001
2.078567603263632E+001  2.104712765135217E+001  2.131186792658423E+001  2.157993822453918E+001
2.185138043174643E+001  2.212623696160313E+001  2.240455076100125E+001  2.268636531703817E+001
2.297172466381166E+001  2.326067338930022E+001  2.355325664233006E+001  2.384952013962974E+001
2.414951017297344E+001  2.445327361641424E+001  2.476085793360819E+001  2.507231118523062E+001
2.538768203648575E+001  2.570701976471070E+001  2.603037426707525E+001  2.635779606837824E+001
2.668933632894226E+001  2.702504685260756E+001  2.736498009482644E+001  2.770918917085964E+001
2.805772786407557E+001  2.841065063435416E+001  2.876801262659628E+001  2.912986967934026E+001
2.949627833348684E+001  2.986729584113368E+001  3.024298017452117E+001  3.062339003509076E+001
3.100858486265707E+001  3.139862484469566E+001  3.179357092574723E+001  3.219348481694046E+001
3.259842900563450E+001  3.300846676518266E+001  3.342366216481916E+001  3.384408007966988E+001
3.426978620088936E+001  3.470084704592516E+001  3.513732996891127E+001  3.557930317119250E+001
3.602683571198089E+001  3.647999751914644E+001  3.693885940014350E+001  3.740349305307448E+001
3.787397107789305E+001  3.835036698774771E+001  3.883275522046865E+001  3.932121115019864E+001
3.981581109917044E+001  4.031663234963241E+001  4.082375315592384E+001  4.133725275670245E+001
4.185721138732560E+001  4.238371029238714E+001  4.291683173841222E+001  4.345665902671141E+001
4.400327650639677E+001  4.455676958756163E+001  4.511722475462595E+001  4.568472957984994E+001
4.625937273701707E+001  4.684124401528979E+001  4.743043433323916E+001  4.802703575305101E+001
4.863114149491108E+001  4.924284595157057E+001  4.986224470309533E+001  5.048943453180048E+001
5.112451343737272E+001  5.176758065218323E+001  5.241873665679261E+001  5.307808319565137E+001
5.374572329299763E+001  5.442176126895496E+001  5.510630275583244E+001  5.579945471463022E+001
5.650132545175202E+001  5.721202463592851E+001  5.793166331535313E+001  5.866035393503360E+001
5.939821035436189E+001  6.014534786490465E+001  6.090188320841796E+001  6.166793459508843E+001
6.244362172200372E+001  6.322906579185566E+001  6.402438953187811E+001  6.482971721302354E+001
6.564517466938061E+001  6.647088931783584E+001  6.730699017798312E+001  6.815360789228285E+001
6.901087474647534E+001  6.987892469025068E+001  7.075789335817859E+001  7.164791809090183E+001
7.254913795659559E+001  7.346169377269743E+001  7.438572812791024E+001  7.532138540448192E+001
7.626881180076565E+001  7.722815535406336E+001  7.819956596375704E+001  7.918319541473082E+001