<UPF version="2.0.1">
  <PP_INFO>

 This pseudopotential file has been produced using the code
 ONCVPSP  (Optimized Norm-Conservinng Vanderbilt PSeudopotential)
 scalar-relativistic version 3.2.3 08/16/2016 by D. R. Hamann
 The code is available through a link at URL www.mat-simresearch.com.
 Documentation with the package provides a full discription of the
 input data below.


 While it is not required under the terms of the GNU GPL, it is
 suggested that you cite D. R. Hamann, Phys. Rev. B 88, 085117 (2013)
 in any publication using these pseudopotentials.

    <PP_INPUTFILE>
# ATOM AND REFERENCE CONFIGURATION
# atsym  z   nc   nv     iexc    psfile
  He  2.00    0    1       4      upf
#
#   n    l    f        energy (Ha)
    1    0    2.00
#
# PSEUDOPOTENTIAL AND OPTIMIZATION
# lmax
    1
#
#   l,   rc,      ep,       ncon, nbas, qcut
    0   1.25000  -0.57931    4    8   9.40000
    1   1.13000   0.05000    4    7   9.40000
#
# LOCAL POTENTIAL
# lloc, lpopt,  rc(5),   dvloc0
    4    5   1.00000      0.00000
#
# VANDERBILT-KLEINMAN-BYLANDER PROJECTORs
# l, nproj, debl
    0    2   1.00000
    1    1   1.00000
#
# MODEL CORE CHARGE
# icmod, fcfact, rcfact
    0   0.00000   0.00000
#
# LOG DERIVATIVE ANALYSIS
# epsh1, epsh2, depsh
  -12.00   12.00    0.02
#
# OUTPUT GRID
# rlmax, drl
    6.00    0.01
#
# TEST CONFIGURATIONS
# ncnf
    0
# nvcnf
#   n    l    f
    </PP_INPUTFILE>
  </PP_INFO>
  <!--                               -->
  <!-- END OF HUMAN READABLE SECTION -->
  <!--                               -->
    <PP_HEADER
       generated="Generated using ONCVPSP code by D. R. Hamann"
       author="anonymous"
       date="170215"
       comment=""
       element="He"
       pseudo_type="NC"
       relativistic="scalar"
       is_ultrasoft="F"
       is_paw="F"
       is_coulomb="F"
       has_so="F"
       has_wfc="F"
       has_gipaw="F"
       core_correction="F"
       functional="PBE"
       z_valence="    2.00"
       total_psenergy="  -5.71737330108E+00"
       rho_cutoff="   7.21000000000E+00"
       l_max="1"
       l_local="-1"
       mesh_size="   722"
       number_of_wfc="1"
       wfc_cutoff = "60.0"
       r_cut="3.00"
       number_of_proj="3"/>
 <PP_MESH>
   <PP_R type="real"  size=" 722" columns="8">
    0.0000    0.0100    0.0200    0.0300    0.0400    0.0500    0.0600    0.0700
    0.0800    0.0900    0.1000    0.1100    0.1200    0.1300    0.1400    0.1500
    0.1600    0.1700    0.1800    0.1900    0.2000    0.2100    0.2200    0.2300
    0.2400    0.2500    0.2600    0.2700    0.2800    0.2900    0.3000    0.3100
    0.3200    0.3300    0.3400    0.3500    0.3600    0.3700    0.3800    0.3900
    0.4000    0.4100    0.4200    0.4300    0.4400    0.4500    0.4600    0.4700
    0.4800    0.4900    0.5000    0.5100    0.5200    0.5300    0.5400    0.5500
    0.5600    0.5700    0.5800    0.5900    0.6000    0.6100    0.6200    0.6300
    0.6400    0.6500    0.6600    0.6700    0.6800    0.6900    0.7000    0.7100
    0.7200    0.7300    0.7400    0.7500    0.7600    0.7700    0.7800    0.7900
    0.8000    0.8100    0.8200    0.8300    0.8400    0.8500    0.8600    0.8700
    0.8800    0.8900    0.9000    0.9100    0.9200    0.9300    0.9400    0.9500
    0.9600    0.9700    0.9800    0.9900    1.0000    1.0100    1.0200    1.0300
    1.0400    1.0500    1.0600    1.0700    1.0800    1.0900    1.1000    1.1100
    1.1200    1.1300    1.1400    1.1500    1.1600    1.1700    1.1800    1.1900
    1.2000    1.2100    1.2200    1.2300    1.2400    1.2500    1.2600    1.2700
    1.2800    1.2900    1.3000    1.3100    1.3200    1.3300    1.3400    1.3500
    1.3600    1.3700    1.3800    1.3900    1.4000    1.4100    1.4200    1.4300
    1.4400    1.4500    1.4600    1.4700    1.4800    1.4900    1.5000    1.5100
    1.5200    1.5300    1.5400    1.5500    1.5600    1.5700    1.5800    1.5900
    1.6000    1.6100    1.6200    1.6300    1.6400    1.6500    1.6600    1.6700
    1.6800    1.6900    1.7000    1.7100    1.7200    1.7300    1.7400    1.7500
    1.7600    1.7700    1.7800    1.7900    1.8000    1.8100    1.8200    1.8300
    1.8400    1.8500    1.8600    1.8700    1.8800    1.8900    1.9000    1.9100
    1.9200    1.9300    1.9400    1.9500    1.9600    1.9700    1.9800    1.9900
    2.0000    2.0100    2.0200    2.0300    2.0400    2.0500    2.0600    2.0700
    2.0800    2.0900    2.1000    2.1100    2.1200    2.1300    2.1400    2.1500
    2.1600    2.1700    2.1800    2.1900    2.2000    2.2100    2.2200    2.2300
    2.2400    2.2500    2.2600    2.2700    2.2800    2.2900    2.3000    2.3100
    2.3200    2.3300    2.3400    2.3500    2.3600    2.3700    2.3800    2.3900
    2.4000    2.4100    2.4200    2.4300    2.4400    2.4500    2.4600    2.4700
    2.4800    2.4900    2.5000    2.5100    2.5200    2.5300    2.5400    2.5500
    2.5600    2.5700    2.5800    2.5900    2.6000    2.6100    2.6200    2.6300
    2.6400    2.6500    2.6600    2.6700    2.6800    2.6900    2.7000    2.7100
    2.7200    2.7300    2.7400    2.7500    2.7600    2.7700    2.7800    2.7900
    2.8000    2.8100    2.8200    2.8300    2.8400    2.8500    2.8600    2.8700
    2.8800    2.8900    2.9000    2.9100    2.9200    2.9300    2.9400    2.9500
    2.9600    2.9700    2.9800    2.9900    3.0000    3.0100    3.0200    3.0300
    3.0400    3.0500    3.0600    3.0700    3.0800    3.0900    3.1000    3.1100
    3.1200    3.1300    3.1400    3.1500    3.1600    3.1700    3.1800    3.1900
    3.2000    3.2100    3.2200    3.2300    3.2400    3.2500    3.2600    3.2700
    3.2800    3.2900    3.3000    3.3100    3.3200    3.3300    3.3400    3.3500
    3.3600    3.3700    3.3800    3.3900    3.4000    3.4100    3.4200    3.4300
    3.4400    3.4500    3.4600    3.4700    3.4800    3.4900    3.5000    3.5100
    3.5200    3.5300    3.5400    3.5500    3.5600    3.5700    3.5800    3.5900
    3.6000    3.6100    3.6200    3.6300    3.6400    3.6500    3.6600    3.6700
    3.6800    3.6900    3.7000    3.7100    3.7200    3.7300    3.7400    3.7500
    3.7600    3.7700    3.7800    3.7900    3.8000    3.8100    3.8200    3.8300
    3.8400    3.8500    3.8600    3.8700    3.8800    3.8900    3.9000    3.9100
    3.9200    3.9300    3.9400    3.9500    3.9600    3.9700    3.9800    3.9900
    4.0000    4.0100    4.0200    4.0300    4.0400    4.0500    4.0600    4.0700
    4.0800    4.0900    4.1000    4.1100    4.1200    4.1300    4.1400    4.1500
    4.1600    4.1700    4.1800    4.1900    4.2000    4.2100    4.2200    4.2300
    4.2400    4.2500    4.2600    4.2700    4.2800    4.2900    4.3000    4.3100
    4.3200    4.3300    4.3400    4.3500    4.3600    4.3700    4.3800    4.3900
    4.4000    4.4100    4.4200    4.4300    4.4400    4.4500    4.4600    4.4700
    4.4800    4.4900    4.5000    4.5100    4.5200    4.5300    4.5400    4.5500
    4.5600    4.5700    4.5800    4.5900    4.6000    4.6100    4.6200    4.6300
    4.6400    4.6500    4.6600    4.6700    4.6800    4.6900    4.7000    4.7100
    4.7200    4.7300    4.7400    4.7500    4.7600    4.7700    4.7800    4.7900
    4.8000    4.8100    4.8200    4.8300    4.8400    4.8500    4.8600    4.8700
    4.8800    4.8900    4.9000    4.9100    4.9200    4.9300    4.9400    4.9500
    4.9600    4.9700    4.9800    4.9900    5.0000    5.0100    5.0200    5.0300
    5.0400    5.0500    5.0600    5.0700    5.0800    5.0900    5.1000    5.1100
    5.1200    5.1300    5.1400    5.1500    5.1600    5.1700    5.1800    5.1900
    5.2000    5.2100    5.2200    5.2300    5.2400    5.2500    5.2600    5.2700
    5.2800    5.2900    5.3000    5.3100    5.3200    5.3300    5.3400    5.3500
    5.3600    5.3700    5.3800    5.3900    5.4000    5.4100    5.4200    5.4300
    5.4400    5.4500    5.4600    5.4700    5.4800    5.4900    5.5000    5.5100
    5.5200    5.5300    5.5400    5.5500    5.5600    5.5700    5.5800    5.5900
    5.6000    5.6100    5.6200    5.6300    5.6400    5.6500    5.6600    5.6700
    5.6800    5.6900    5.7000    5.7100    5.7200    5.7300    5.7400    5.7500
    5.7600    5.7700    5.7800    5.7900    5.8000    5.8100    5.8200    5.8300
    5.8400    5.8500    5.8600    5.8700    5.8800    5.8900    5.9000    5.9100
    5.9200    5.9300    5.9400    5.9500    5.9600    5.9700    5.9800    5.9900
    6.0000    6.0100    6.0200    6.0300    6.0400    6.0500    6.0600    6.0700
    6.0800    6.0900    6.1000    6.1100    6.1200    6.1300    6.1400    6.1500
    6.1600    6.1700    6.1800    6.1900    6.2000    6.2100    6.2200    6.2300
    6.2400    6.2500    6.2600    6.2700    6.2800    6.2900    6.3000    6.3100
    6.3200    6.3300    6.3400    6.3500    6.3600    6.3700    6.3800    6.3900
    6.4000    6.4100    6.4200    6.4300    6.4400    6.4500    6.4600    6.4700
    6.4800    6.4900    6.5000    6.5100    6.5200    6.5300    6.5400    6.5500
    6.5600    6.5700    6.5800    6.5900    6.6000    6.6100    6.6200    6.6300
    6.6400    6.6500    6.6600    6.6700    6.6800    6.6900    6.7000    6.7100
    6.7200    6.7300    6.7400    6.7500    6.7600    6.7700    6.7800    6.7900
    6.8000    6.8100    6.8200    6.8300    6.8400    6.8500    6.8600    6.8700
    6.8800    6.8900    6.9000    6.9100    6.9200    6.9300    6.9400    6.9500
    6.9600    6.9700    6.9800    6.9900    7.0000    7.0100    7.0200    7.0300
    7.0400    7.0500    7.0600    7.0700    7.0800    7.0900    7.1000    7.1100
    7.1200    7.1300    7.1400    7.1500    7.1600    7.1700    7.1800    7.1900
    7.2000    7.2100
   </PP_R>
   <PP_RAB type="real"  size=" 722" columns="8">
    0.0100    0.0100    0.0100    0.0100    0.0100    0.0100    0.0100    0.0100
    0.0100    0.0100    0.0100    0.0100    0.0100    0.0100    0.0100    0.0100
    0.0100    0.0100    0.0100    0.0100    0.0100    0.0100    0.0100    0.0100
    0.0100    0.0100    0.0100    0.0100    0.0100    0.0100    0.0100    0.0100
    0.0100    0.0100    0.0100    0.0100    0.0100    0.0100    0.0100    0.0100
    0.0100    0.0100    0.0100    0.0100    0.0100    0.0100    0.0100    0.0100
    0.0100    0.0100    0.0100    0.0100    0.0100    0.0100    0.0100    0.0100
    0.0100    0.0100    0.0100    0.0100    0.0100    0.0100    0.0100    0.0100
    0.0100    0.0100    0.0100    0.0100    0.0100    0.0100    0.0100    0.0100
    0.0100    0.0100    0.0100    0.0100    0.0100    0.0100    0.0100    0.0100
    0.0100    0.0100    0.0100    0.0100    0.0100    0.0100    0.0100    0.0100
    0.0100    0.0100    0.0100    0.0100    0.0100    0.0100    0.0100    0.0100
    0.0100    0.0100    0.0100    0.0100    0.0100    0.0100    0.0100    0.0100
    0.0100    0.0100    0.0100    0.0100    0.0100    0.0100    0.0100    0.0100
    0.0100    0.0100    0.0100    0.0100    0.0100    0.0100    0.0100    0.0100
    0.0100    0.0100    0.0100    0.0100    0.0100    0.0100    0.0100    0.0100
    0.0100    0.0100    0.0100    0.0100    0.0100    0.0100    0.0100    0.0100
    0.0100    0.0100    0.0100    0.0100    0.0100    0.0100    0.0100    0.0100
    0.0100    0.0100    0.0100    0.0100    0.0100    0.0100    0.0100    0.0100
    0.0100    0.0100    0.0100    0.0100    0.0100    0.0100    0.0100    0.0100
    0.0100    0.0100    0.0100    0.0100    0.0100    0.0100    0.0100    0.0100
    0.0100    0.0100    0.0100    0.0100    0.0100    0.0100    0.0100    0.0100
    0.0100    0.0100    0.0100    0.0100    0.0100    0.0100    0.0100    0.0100
    0.0100    0.0100    0.0100    0.0100    0.0100    0.0100    0.0100    0.0100
    0.0100    0.0100    0.0100    0.0100    0.0100    0.0100    0.0100    0.0100
    0.0100    0.0100    0.0100    0.0100    0.0100    0.0100    0.0100    0.0100
    0.0100    0.0100    0.0100    0.0100    0.0100    0.0100    0.0100    0.0100
    0.0100    0.0100    0.0100    0.0100    0.0100    0.0100    0.0100    0.0100
    0.0100    0.0100    0.0100    0.0100    0.0100    0.0100    0.0100    0.0100
    0.0100    0.0100    0.0100    0.0100    0.0100    0.0100    0.0100    0.0100
    0.0100    0.0100    0.0100    0.0100    0.0100    0.0100    0.0100    0.0100
    0.0100    0.0100    0.0100    0.0100    0.0100    0.0100    0.0100    0.0100
    0.0100    0.0100    0.0100    0.0100    0.0100    0.0100    0.0100    0.0100
    0.0100    0.0100    0.0100    0.0100    0.0100    0.0100    0.0100    0.0100
    0.0100    0.0100    0.0100    0.0100    0.0100    0.0100    0.0100    0.0100
    0.0100    0.0100    0.0100    0.0100    0.0100    0.0100    0.0100    0.0100
    0.0100    0.0100    0.0100    0.0100    0.0100    0.0100    0.0100    0.0100
    0.0100    0.0100    0.0100    0.0100    0.0100    0.0100    0.0100    0.0100
    0.0100    0.0100    0.0100    0.0100    0.0100    0.0100    0.0100    0.0100
    0.0100    0.0100    0.0100    0.0100    0.0100    0.0100    0.0100    0.0100
    0.0100    0.0100    0.0100    0.0100    0.0100    0.0100    0.0100    0.0100
    0.0100    0.0100    0.0100    0.0100    0.0100    0.0100    0.0100    0.0100
    0.0100    0.0100    0.0100    0.0100    0.0100    0.0100    0.0100    0.0100
    0.0100    0.0100    0.0100    0.0100    0.0100    0.0100    0.0100    0.0100
    0.0100    0.0100    0.0100    0.0100    0.0100    0.0100    0.0100    0.0100
    0.0100    0.0100    0.0100    0.0100    0.0100    0.0100    0.0100    0.0100
    0.0100    0.0100    0.0100    0.0100    0.0100    0.0100    0.0100    0.0100
    0.0100    0.0100    0.0100    0.0100    0.0100    0.0100    0.0100    0.0100
    0.0100    0.0100    0.0100    0.0100    0.0100    0.0100    0.0100    0.0100
    0.0100    0.0100    0.0100    0.0100    0.0100    0.0100    0.0100    0.0100
    0.0100    0.0100    0.0100    0.0100    0.0100    0.0100    0.0100    0.0100
    0.0100    0.0100    0.0100    0.0100    0.0100    0.0100    0.0100    0.0100
    0.0100    0.0100    0.0100    0.0100    0.0100    0.0100    0.0100    0.0100
    0.0100    0.0100    0.0100    0.0100    0.0100    0.0100    0.0100    0.0100
    0.0100    0.0100    0.0100    0.0100    0.0100    0.0100    0.0100    0.0100
    0.0100    0.0100    0.0100    0.0100    0.0100    0.0100    0.0100    0.0100
    0.0100    0.0100    0.0100    0.0100    0.0100    0.0100    0.0100    0.0100
    0.0100    0.0100    0.0100    0.0100    0.0100    0.0100    0.0100    0.0100
    0.0100    0.0100    0.0100    0.0100    0.0100    0.0100    0.0100    0.0100
    0.0100    0.0100    0.0100    0.0100    0.0100    0.0100    0.0100    0.0100
    0.0100    0.0100    0.0100    0.0100    0.0100    0.0100    0.0100    0.0100
    0.0100    0.0100    0.0100    0.0100    0.0100    0.0100    0.0100    0.0100
    0.0100    0.0100    0.0100    0.0100    0.0100    0.0100    0.0100    0.0100
    0.0100    0.0100    0.0100    0.0100    0.0100    0.0100    0.0100    0.0100
    0.0100    0.0100    0.0100    0.0100    0.0100    0.0100    0.0100    0.0100
    0.0100    0.0100    0.0100    0.0100    0.0100    0.0100    0.0100    0.0100
    0.0100    0.0100    0.0100    0.0100    0.0100    0.0100    0.0100    0.0100
    0.0100    0.0100    0.0100    0.0100    0.0100    0.0100    0.0100    0.0100
    0.0100    0.0100    0.0100    0.0100    0.0100    0.0100    0.0100    0.0100
    0.0100    0.0100    0.0100    0.0100    0.0100    0.0100    0.0100    0.0100
    0.0100    0.0100    0.0100    0.0100    0.0100    0.0100    0.0100    0.0100
    0.0100    0.0100    0.0100    0.0100    0.0100    0.0100    0.0100    0.0100
    0.0100    0.0100    0.0100    0.0100    0.0100    0.0100    0.0100    0.0100
    0.0100    0.0100    0.0100    0.0100    0.0100    0.0100    0.0100    0.0100
    0.0100    0.0100    0.0100    0.0100    0.0100    0.0100    0.0100    0.0100
    0.0100    0.0100    0.0100    0.0100    0.0100    0.0100    0.0100    0.0100
    0.0100    0.0100    0.0100    0.0100    0.0100    0.0100    0.0100    0.0100
    0.0100    0.0100    0.0100    0.0100    0.0100    0.0100    0.0100    0.0100
    0.0100    0.0100    0.0100    0.0100    0.0100    0.0100    0.0100    0.0100
    0.0100    0.0100    0.0100    0.0100    0.0100    0.0100    0.0100    0.0100
    0.0100    0.0100    0.0100    0.0100    0.0100    0.0100    0.0100    0.0100
    0.0100    0.0100    0.0100    0.0100    0.0100    0.0100    0.0100    0.0100
    0.0100    0.0100    0.0100    0.0100    0.0100    0.0100    0.0100    0.0100
    0.0100    0.0100    0.0100    0.0100    0.0100    0.0100    0.0100    0.0100
    0.0100    0.0100    0.0100    0.0100    0.0100    0.0100    0.0100    0.0100
    0.0100    0.0100    0.0100    0.0100    0.0100    0.0100    0.0100    0.0100
    0.0100    0.0100    0.0100    0.0100    0.0100    0.0100    0.0100    0.0100
    0.0100    0.0100    0.0100    0.0100    0.0100    0.0100    0.0100    0.0100
    0.0100    0.0100    0.0100    0.0100    0.0100    0.0100    0.0100    0.0100
    0.0100    0.0100    0.0100    0.0100    0.0100    0.0100    0.0100    0.0100
    0.0100    0.0100
   </PP_RAB>
 </PP_MESH>
  <PP_LOCAL type="real"  size=" 722" columns="4">
   -8.8534272900E+00   -8.8520637521E+00   -8.8479794886E+00   -8.8411935720E+00
   -8.8317373067E+00   -8.8196535648E+00   -8.8049958857E+00   -8.7878273853E+00
   -8.7682195214E+00   -8.7462507616E+00   -8.7220052044E+00   -8.6955712000E+00
   -8.6670400121E+00   -8.6365045579E+00   -8.6040582559E+00   -8.5697940011E+00
   -8.5338032830E+00   -8.4961754508E+00   -8.4569971264E+00   -8.4163517591E+00
   -8.3743193120E+00   -8.3309760666E+00   -8.2863945310E+00   -8.2406434349E+00
   -8.1937877973E+00   -8.1458890486E+00   -8.0970051958E+00   -8.0471910158E+00
   -7.9964982673E+00   -7.9449759106E+00   -7.8926703291E+00   -7.8396255453E+00
   -7.7858834275E+00   -7.7314838838E+00   -7.6764650416E+00   -7.6208634116E+00
   -7.5647140356E+00   -7.5080506191E+00   -7.4509056494E+00   -7.3933105002E+00
   -7.3352955245E+00   -7.2768901367E+00   -7.2181228865E+00   -7.1590215259E+00
   -7.0996130697E+00   -7.0399238534E+00   -6.9799795869E+00   -6.9198054076E+00
   -6.8594259324E+00   -6.7988653096E+00   -6.7381472717E+00   -6.6772951892E+00
   -6.6163321253E+00   -6.5552808913E+00   -6.4941641033E+00   -6.4330042391E+00
   -6.3718236942E+00   -6.3106448376E+00   -6.2494900652E+00   -6.1883818505E+00
   -6.1273427917E+00   -6.0663956538E+00   -6.0055634053E+00   -5.9448692474E+00
   -5.8843366369E+00   -5.8239892990E+00   -5.7638512330E+00   -5.7039467069E+00
   -5.6443002426E+00   -5.5849365917E+00   -5.5258806998E+00   -5.4671576624E+00
   -5.4087926698E+00   -5.3508109442E+00   -5.2932376670E+00   -5.2360978999E+00
   -5.1794164976E+00   -5.1232180157E+00   -5.0675266133E+00   -5.0123659518E+00
   -4.9577590910E+00   -4.9037283833E+00   -4.8502953670E+00   -4.7974806604E+00
   -4.7453038556E+00   -4.6937834158E+00   -4.6429365734E+00   -4.5927792318E+00
   -4.5433258703E+00   -4.4945894523E+00   -4.4465813371E+00   -4.3993111951E+00
   -4.3527869258E+00   -4.3070145790E+00   -4.2619982772E+00   -4.2177401403E+00
   -4.1742402099E+00   -4.1314963733E+00   -4.0895042855E+00   -4.0482572878E+00
   -4.0077463542E+00   -3.9679598761E+00   -3.9288841091E+00   -3.8905047930E+00
   -3.8528085794E+00   -3.8157829960E+00   -3.7794163274E+00   -3.7436975256E+00
   -3.7086161053E+00   -3.6741620320E+00   -3.6403256074E+00   -3.6070973509E+00
   -3.5744678804E+00   -3.5424277935E+00   -3.5109675517E+00   -3.4800773693E+00
   -3.4497471105E+00   -3.4199661999E+00   -3.3907235428E+00   -3.3620074637E+00
   -3.3338056639E+00   -3.3061052037E+00   -3.2788924848E+00   -3.2521532879E+00
   -3.2258729069E+00   -3.2000360465E+00   -3.1746266120E+00   -3.1496272607E+00
   -3.1250217389E+00   -3.1007966911E+00   -3.0769438509E+00   -3.0534555579E+00
   -3.0303231115E+00   -3.0075385028E+00   -2.9850939714E+00   -2.9629819544E+00
   -2.9411951167E+00   -2.9197263374E+00   -2.8985687023E+00   -2.8777154959E+00
   -2.8571601946E+00   -2.8368964598E+00   -2.8169181317E+00   -2.7972192226E+00
   -2.7777939112E+00   -2.7586365367E+00   -2.7397415936E+00   -2.7211037261E+00
   -2.7027177230E+00   -2.6845785133E+00   -2.6666811611E+00   -2.6490208611E+00
   -2.6315929346E+00   -2.6143928254E+00   -2.5974160953E+00   -2.5806584209E+00
   -2.5641155896E+00   -2.5477834960E+00   -2.5316581387E+00   -2.5157356172E+00
   -2.5000121281E+00   -2.4844839629E+00   -2.4691475044E+00   -2.4539992242E+00
   -2.4390356801E+00   -2.4242535133E+00   -2.4096494459E+00   -2.3952202785E+00
   -2.3809628878E+00   -2.3668742247E+00   -2.3529513115E+00   -2.3391912405E+00
   -2.3255911713E+00   -2.3121483294E+00   -2.2988600040E+00   -2.2857235463E+00
   -2.2727363676E+00   -2.2598959379E+00   -2.2471997838E+00   -2.2346454873E+00
   -2.2222306842E+00   -2.2099530625E+00   -2.1978103609E+00   -2.1858003677E+00
   -2.1739209192E+00   -2.1621698985E+00   -2.1505452342E+00   -2.1390448991E+00
   -2.1276669094E+00   -2.1164093231E+00   -2.1052702391E+00   -2.0942477962E+00
   -2.0833401717E+00   -2.0725455811E+00   -2.0618622764E+00   -2.0512885455E+00
   -2.0408227114E+00   -2.0304631308E+00   -2.0202081939E+00   -2.0100563233E+00
   -2.0000059729E+00   -1.9900556275E+00   -1.9802038018E+00   -1.9704490401E+00
   -1.9607899147E+00   -1.9512250263E+00   -1.9417530024E+00   -1.9323724972E+00
   -1.9230821907E+00   -1.9138807881E+00   -1.9047670195E+00   -1.8957396388E+00
   -1.8867974235E+00   -1.8779391743E+00   -1.8691637138E+00   -1.8604698871E+00
   -1.8518565602E+00   -1.8433226202E+00   -1.8348669747E+00   -1.8264885512E+00
   -1.8181862965E+00   -1.8099591767E+00   -1.8018061765E+00   -1.7937262987E+00
   -1.7857185640E+00   -1.7777820105E+00   -1.7699156932E+00   -1.7621186840E+00
   -1.7543900708E+00   -1.7467289577E+00   -1.7391344641E+00   -1.7316057249E+00
   -1.7241418898E+00   -1.7167421230E+00   -1.7094056032E+00   -1.7021315230E+00
   -1.6949190885E+00   -1.6877675196E+00   -1.6806760488E+00   -1.6736439218E+00
   -1.6666703969E+00   -1.6597547445E+00   -1.6528962471E+00   -1.6460941991E+00
   -1.6393479064E+00   -1.6326566864E+00   -1.6260198673E+00   -1.6194367884E+00
   -1.6129067996E+00   -1.6064292612E+00   -1.6000035438E+00   -1.5936290280E+00
   -1.5873051042E+00   -1.5810311725E+00   -1.5748066425E+00   -1.5686309329E+00
   -1.5625034715E+00   -1.5564236952E+00   -1.5503910494E+00   -1.5444049882E+00
   -1.5384649741E+00   -1.5325704778E+00   -1.5267209780E+00   -1.5209159616E+00
   -1.5151549228E+00   -1.5094373640E+00   -1.5037627946E+00   -1.4981307316E+00
   -1.4925406993E+00   -1.4869922288E+00   -1.4814848583E+00   -1.4760181329E+00
   -1.4705916042E+00   -1.4652048304E+00   -1.4598573764E+00   -1.4545488130E+00
   -1.4492787177E+00   -1.4440466737E+00   -1.4388522704E+00   -1.4336951031E+00
   -1.4285747728E+00   -1.4234908862E+00   -1.4184430556E+00   -1.4134308987E+00
   -1.4084540387E+00   -1.4035121041E+00   -1.3986047285E+00   -1.3937315506E+00
   -1.3888922142E+00   -1.3840863680E+00   -1.3793136655E+00   -1.3745737651E+00
   -1.3698663297E+00   -1.3651910269E+00   -1.3605475288E+00   -1.3559355119E+00
   -1.3513546573E+00   -1.3468046500E+00   -1.3422851797E+00   -1.3377959398E+00
   -1.3333366280E+00   -1.3289069461E+00   -1.3245065997E+00   -1.3201352984E+00
   -1.3157927555E+00   -1.3114786882E+00   -1.3071928172E+00   -1.3029348671E+00
   -1.2987045658E+00   -1.2945016450E+00   -1.2903258397E+00   -1.2861768882E+00
   -1.2820545324E+00   -1.2779585174E+00   -1.2738885915E+00   -1.2698445062E+00
   -1.2658260162E+00   -1.2618328793E+00   -1.2578648563E+00   -1.2539217110E+00
   -1.2500032101E+00   -1.2461091235E+00   -1.2422392235E+00   -1.2383932855E+00
   -1.2345710878E+00   -1.2307724111E+00   -1.2269970389E+00   -1.2232447576E+00
   -1.2195153558E+00   -1.2158086250E+00   -1.2121243590E+00   -1.2084623543E+00
   -1.2048224096E+00   -1.2012043263E+00   -1.1976079081E+00   -1.1940329607E+00
   -1.1904792927E+00   -1.1869467145E+00   -1.1834350389E+00   -1.1799440811E+00
   -1.1764736581E+00   -1.1730235893E+00   -1.1695936962E+00   -1.1661838022E+00
   -1.1627937331E+00   -1.1594233164E+00   -1.1560723818E+00   -1.1527407607E+00
   -1.1494282866E+00   -1.1461347951E+00   -1.1428601234E+00   -1.1396041106E+00
   -1.1363665978E+00   -1.1331474276E+00   -1.1299464447E+00   -1.1267634954E+00
   -1.1235984276E+00   -1.1204510912E+00   -1.1173213375E+00   -1.1142090196E+00
   -1.1111139923E+00   -1.1080361117E+00   -1.1049752360E+00   -1.1019312244E+00
   -1.0989039380E+00   -1.0958932393E+00   -1.0928989925E+00   -1.0899210629E+00
   -1.0869593176E+00   -1.0840136251E+00   -1.0810838550E+00   -1.0781698788E+00
   -1.0752715690E+00   -1.0723887996E+00   -1.0695214459E+00   -1.0666693848E+00
   -1.0638324940E+00   -1.0610106530E+00   -1.0582037422E+00   -1.0554116436E+00
   -1.0526342401E+00   -1.0498714160E+00   -1.0471230569E+00   -1.0443890495E+00
   -1.0416692816E+00   -1.0389636422E+00   -1.0362720216E+00   -1.0335943112E+00
   -1.0309304033E+00   -1.0282801915E+00   -1.0256435704E+00   -1.0230204358E+00
   -1.0204106845E+00   -1.0178142143E+00   -1.0152309240E+00   -1.0126607137E+00
   -1.0101034841E+00   -1.0075591372E+00   -1.0050275760E+00   -1.0025087042E+00
   -1.0000024267E+00   -9.9750864923E-01   -9.9502727860E-01   -9.9255822240E-01
   -9.9010138919E-01   -9.8765668844E-01   -9.8522403050E-01   -9.8280332660E-01
   -9.8039448885E-01   -9.7799743020E-01   -9.7561206448E-01   -9.7323830632E-01
   -9.7087607122E-01   -9.6852527548E-01   -9.6618583619E-01   -9.6385767126E-01
   -9.6154069940E-01   -9.5923484007E-01   -9.5694001352E-01   -9.5465614077E-01
   -9.5238314356E-01   -9.5012094441E-01   -9.4786946654E-01   -9.4562863393E-01
   -9.4339837125E-01   -9.4117860390E-01   -9.3896925796E-01   -9.3677026022E-01
   -9.3458153814E-01   -9.3240301987E-01   -9.3023463421E-01   -9.2807631065E-01
   -9.2592797930E-01   -9.2378957094E-01   -9.2166101698E-01   -9.1954224945E-01
   -9.1743320101E-01   -9.1533380496E-01   -9.1324399517E-01   -9.1116370613E-01
   -9.0909287294E-01   -9.0703143127E-01   -9.0497931737E-01   -9.0293646809E-01
   -9.0090282081E-01   -8.9887831351E-01   -8.9686288470E-01   -8.9485647347E-01
   -8.9285901941E-01   -8.9087046269E-01   -8.8889074400E-01   -8.8691980453E-01
   -8.8495758603E-01   -8.8300403073E-01   -8.8105908141E-01   -8.7912268130E-01
   -8.7719477417E-01   -8.7527530427E-01   -8.7336421632E-01   -8.7146145556E-01
   -8.6956696766E-01   -8.6768069880E-01   -8.6580259560E-01   -8.6393260515E-01
   -8.6207067501E-01   -8.6021675317E-01   -8.5837078808E-01   -8.5653272861E-01
   -8.5470252411E-01   -8.5288012431E-01   -8.5106547941E-01   -8.4925854001E-01
   -8.4745925713E-01   -8.4566758222E-01   -8.4388346712E-01   -8.4210686409E-01
   -8.4033772578E-01   -8.3857600525E-01   -8.3682165593E-01   -8.3507463167E-01
   -8.3333488669E-01   -8.3160237557E-01   -8.2987705331E-01   -8.2815887524E-01
   -8.2644779709E-01   -8.2474377493E-01   -8.2304676522E-01   -8.2135672476E-01
   -8.1967361070E-01   -8.1799738055E-01   -8.1632799216E-01   -8.1466540373E-01
   -8.1300957381E-01   -8.1136046125E-01   -8.0971802527E-01   -8.0808222541E-01
   -8.0645302152E-01   -8.0483037379E-01   -8.0321424273E-01   -8.0160458917E-01
   -8.0000137422E-01   -7.9840455935E-01   -7.9681410629E-01   -7.9522997712E-01
   -7.9365213419E-01   -7.9208054015E-01   -7.9051515795E-01   -7.8895595085E-01
   -7.8740288236E-01   -7.8585591632E-01   -7.8431501683E-01   -7.8278014826E-01
   -7.8125127529E-01   -7.7972836284E-01   -7.7821137614E-01   -7.7670028066E-01
   -7.7519504216E-01   -7.7369562663E-01   -7.7220200037E-01   -7.7071412991E-01
   -7.6923198204E-01   -7.6775552381E-01   -7.6628472253E-01   -7.6481954573E-01
   -7.6335996123E-01   -7.6190593706E-01   -7.6045744151E-01   -7.5901444311E-01
   -7.5757691064E-01   -7.5614481308E-01   -7.5471811967E-01   -7.5329679989E-01
   -7.5188082343E-01   -7.5047016022E-01   -7.4906478040E-01   -7.4766465435E-01
   -7.4626975267E-01   -7.4488004617E-01   -7.4349550588E-01   -7.4211610304E-01
   -7.4074180912E-01   -7.3937259578E-01   -7.3800843490E-01   -7.3664929857E-01
   -7.3529515908E-01   -7.3394598892E-01   -7.3260176079E-01   -7.3126244759E-01
   -7.2992802241E-01   -7.2859845853E-01   -7.2727372945E-01   -7.2595380884E-01
   -7.2463867056E-01   -7.2332828868E-01   -7.2202263742E-01   -7.2072169124E-01
   -7.1942542473E-01   -7.1813381269E-01   -7.1684683010E-01   -7.1556445212E-01
   -7.1428665407E-01   -7.1301341147E-01   -7.1174469999E-01   -7.1048049549E-01
   -7.0922077401E-01   -7.0796551173E-01   -7.0671468502E-01   -7.0546827041E-01
   -7.0422624460E-01   -7.0298858445E-01   -7.0175526699E-01   -7.0052626938E-01
   -6.9930156899E-01   -6.9808114331E-01   -6.9686496999E-01   -6.9565302686E-01
   -6.9444529188E-01   -6.9324174317E-01   -6.9204235900E-01   -6.9084711780E-01
   -6.8965599814E-01   -6.8846897872E-01   -6.8728603843E-01   -6.8610715627E-01
   -6.8493231138E-01   -6.8376148308E-01   -6.8259465079E-01   -6.8143179409E-01
   -6.8027289271E-01   -6.7911792648E-01   -6.7796687541E-01   -6.7681971962E-01
   -6.7567643937E-01   -6.7453701506E-01   -6.7340142720E-01   -6.7226965646E-01
   -6.7114168362E-01   -6.7001748960E-01   -6.6889705544E-01   -6.6778036231E-01
   -6.6666739150E-01   -6.6555812444E-01   -6.6445254266E-01   -6.6335062784E-01
   -6.6225236175E-01   -6.6115772631E-01   -6.6006670354E-01   -6.5897927559E-01
   -6.5789542471E-01   -6.5681513330E-01   -6.5573838383E-01   -6.5466515893E-01
   -6.5359544132E-01   -6.5252921382E-01   -6.5146645939E-01   -6.5040716108E-01
   -6.4935130207E-01   -6.4829886563E-01   -6.4724983514E-01   -6.4620419411E-01
   -6.4516192612E-01   -6.4412301489E-01   -6.4308744421E-01   -6.4205519802E-01
   -6.4102626032E-01   -6.4000061524E-01   -6.3897824699E-01   -6.3795913989E-01
   -6.3694327837E-01   -6.3593064695E-01   -6.3492123024E-01   -6.3391501297E-01
   -6.3291197994E-01   -6.3191211606E-01   -6.3091540634E-01   -6.2992183587E-01
   -6.2893138985E-01   -6.2794405357E-01   -6.2695981239E-01   -6.2597865180E-01