Fl    ONCVPSP-4.0.1  r_core=   1.60082   1.60082   1.60082   1.60082
114.0000     22.0000      230612    zatom,zion,pspd
8      11   3     4   600     0    pspcod,pspxc,lmax,lloc,mmax,r2well
5.99000000  5.00000000  0.00000000    rchrg fchrg qchrg
2     3     3     2    nproj
3     1           extension_switch
4     3     2    nprojso
0                         9.5202450818172E+00 -4.1962143697306E-01
1  0.0000000000000E+00  1.3034839874138E-10  8.7719045915868E-10
2  1.0000000000000E-02  7.6580880051369E-02  1.4009595663478E-02
3  2.0000000000000E-02  1.5299119587970E-01  2.8018710737644E-02
4  3.0000000000000E-02  2.2906074135026E-01  4.2026293372291E-02
5  4.0000000000000E-02  3.0462002738725E-01  5.6030162092431E-02
6  5.0000000000000E-02  3.7950064267504E-01  7.0026472999754E-02
7  6.0000000000000E-02  4.5353561687068E-01  8.4009224754197E-02
8  7.0000000000000E-02  5.2655978700851E-01  9.7969812879435E-02
9  8.0000000000000E-02  5.9841016764759E-01  1.1189664405889E-01
10  9.0000000000000E-02  6.6892632515365E-01  1.2577482001994E-01
11  1.0000000000000E-01  7.3795075632382E-01  1.3958589936112E-01
12  1.1000000000000E-01  8.0532927135615E-01  1.5330774428066E-01
13  1.2000000000000E-01  8.7091138094128E-01  1.6691445763871E-01
14  1.3000000000000E-01  9.3455068701533E-01  1.8037641415395E-01
15  1.4000000000000E-01  9.9610527646358E-01  1.9366038782729E-01
16  1.5000000000000E-01  1.0554381168107E+00  2.0672977592716E-01
17  1.6000000000000E-01  1.1124174526775E+00  2.1954491809444E-01
18  1.7000000000000E-01  1.1669172015338E+00  2.3206350735794E-01
19  1.8000000000000E-01  1.2188173470328E+00  2.4424108812485E-01
20  1.9000000000000E-01  1.2680043279848E+00  2.5603163455353E-01
21  2.0000000000000E-01  1.3143714208155E+00  2.6738820115601E-01
22  2.1000000000000E-01  1.3578191131638E+00  2.7826363604238E-01
23  2.2000000000000E-01  1.3982554661125E+00  2.8861134593251E-01
24  2.3000000000000E-01  1.4355964624088E+00  2.9838610094560E-01
25  2.4000000000000E-01  1.4697663379313E+00  3.0754486625377E-01
26  2.5000000000000E-01  1.5006978935938E+00  3.1604764696971E-01
27  2.6000000000000E-01  1.5283327848462E+00  3.2385833214293E-01
28  2.7000000000000E-01  1.5526217859435E+00  3.3094552347426E-01
29  2.8000000000000E-01  1.5735250262042E+00  3.3728333433077E-01
30  2.9000000000000E-01  1.5910121955670E+00  3.4285214485361E-01
31  3.0000000000000E-01  1.6050627168864E+00  3.4763929940001E-01
32  3.1000000000000E-01  1.6156658825757E+00  3.5163973323955E-01
33  3.2000000000000E-01  1.6228209534097E+00  3.5485651632734E-01
34  3.3000000000000E-01  1.6265372175442E+00  3.5730130308635E-01
35  3.4000000000000E-01  1.6268340080783E+00  3.5899467843533E-01
36  3.5000000000000E-01  1.6237406777919E+00  3.5996639177288E-01
37  3.6000000000000E-01  1.6172965300159E+00  3.6025547225482E-01
38  3.7000000000000E-01  1.6075507049442E+00  3.5991022045064E-01
39  3.8000000000000E-01  1.5945620210623E+00  3.5898807331213E-01
40  3.9000000000000E-01  1.5783987717456E+00  3.5755534130143E-01
41  4.0000000000000E-01  1.5591384774657E+00  3.5568681847726E-01
42  4.1000000000000E-01  1.5368675944332E+00  3.5346526829610E-01
43  4.2000000000000E-01  1.5116811808868E+00  3.5098078981692E-01
44  4.3000000000000E-01  1.4836825226159E+00  3.4833007087339E-01
45  4.4000000000000E-01  1.4529827196695E+00  3.4561553656568E-01
46  4.5000000000000E-01  1.4197002365426E+00  3.4294440309510E-01
47  4.6000000000000E-01  1.3839604184597E+00  3.4042764849224E-01
48  4.7000000000000E-01  1.3458949766639E+00  3.3817891314681E-01
49  4.8000000000000E-01  1.3056414458873E+00  3.3631334421315E-01
50  4.9000000000000E-01  1.2633426174031E+00  3.3494639891874E-01
51  5.0000000000000E-01  1.2191459512561E+00  3.3419262252872E-01
52  5.1000000000000E-01  1.1732029714129E+00  3.3416441720346E-01
53  5.2000000000000E-01  1.1256686476900E+00  3.3497081822097E-01
54  5.3000000000000E-01  1.0767007683781E+00  3.3671629401574E-01
55  5.4000000000000E-01  1.0264593075092E+00  3.3949958620967E-01
56  5.5000000000000E-01  9.7510579069130E-01  3.4341260528364E-01
57  5.6000000000000E-01  9.2280266337238E-01  3.4853939676576E-01
58  5.7000000000000E-01  8.6971266529569E-01  3.5495519180778E-01
59  5.8000000000000E-01  8.1599821476227E-01  3.6272555479896E-01
60  5.9000000000000E-01  7.6182080614121E-01  3.7190563924593E-01
61  6.0000000000000E-01  7.0734042385510E-01  3.8253956155108E-01
62  6.1000000000000E-01  6.5271497582730E-01  3.9465990057451E-01
63  6.2000000000000E-01  5.9809974911063E-01  4.0828732899575E-01
64  6.3000000000000E-01  5.4364689012908E-01  4.2343038052873E-01
65  6.4000000000000E-01  4.8950491165923E-01  4.4008535502110E-01
66  6.5000000000000E-01  4.3581822836167E-01  4.5823636141767E-01
67  6.6000000000000E-01  3.8272672234932E-01  4.7785549652270E-01
68  6.7000000000000E-01  3.3036533995429E-01  4.9890315548876E-01
69  6.8000000000000E-01  2.7886372053303E-01  5.2132846802494E-01
70  6.9000000000000E-01  2.2834585783506E-01  5.4506985248596E-01
71  7.0000000000000E-01  1.7892979415908E-01  5.7005567830574E-01
72  7.1000000000000E-01  1.3072734723517E-01  5.9620502570351E-01
73  7.2000000000000E-01  8.3843869507472E-02  6.2342853024124E-01
74  7.3000000000000E-01  3.8378039251907E-02  6.5162929867317E-01
75  7.4000000000000E-01 -5.5783172498388E-03  6.8070388161695E-01
76  7.5000000000000E-01 -4.7940373441809E-02  7.1054328791003E-01
77  7.6000000000000E-01 -8.8630421244500E-02  7.4103402510311E-01
78  7.7000000000000E-01 -1.2757796205750E-01  7.7205915039260E-01
79  7.8000000000000E-01 -1.6471977133249E-01  8.0349931640857E-01
80  7.9000000000000E-01 -1.9999993808725E-01  8.3523379665105E-01
81  8.0000000000000E-01 -2.3336988075112E-01  8.6714147599975E-01
82  8.1000000000000E-01 -2.6478834072016E-01  8.9910179259917E-01
83  8.2000000000000E-01 -2.9422135495937E-01  9.3099561852765E-01
84  8.3000000000000E-01 -3.2164220892053E-01  9.6270606797570E-01
85  8.4000000000000E-01 -3.4703137095177E-01  9.9411922316391E-01
86  8.5000000000000E-01 -3.7037640926188E-01  1.0251247698966E+00
87  8.6000000000000E-01 -3.9167189237197E-01  1.0556165364467E+00
88  8.7000000000000E-01 -4.1091927384479E-01  1.0854929313660E+00
89  8.8000000000000E-01 -4.2812676193046E-01  1.1146572777840E+00
90  8.9000000000000E-01 -4.4330917461302E-01  1.1430180437574E+00
91  9.0000000000000E-01 -4.5648778038798E-01  1.1704889702314E+00
92  9.1000000000000E-01 -4.6769012495320E-01  1.1969891001327E+00
93  9.2000000000000E-01 -4.7694984385670E-01  1.2224427140027E+00
94  9.3000000000000E-01 -4.8430646102162E-01  1.2467791793572E+00
95  9.4000000000000E-01 -4.8980517296295E-01  1.2699327225985E+00
96  9.5000000000000E-01 -4.9349661842742E-01  1.2918421337784E+00
97  9.6000000000000E-01 -4.9543663313024E-01  1.3124504157801E+00
98  9.7000000000000E-01 -4.9568598923232E-01  1.3317043905412E+00
99  9.8000000000000E-01 -4.9431011920253E-01  1.3495542757491E+00
100  9.9000000000000E-01 -4.9137882374141E-01  1.3659532459925E+00
101  1.0000000000000E+00 -4.8696596350821E-01  1.3808569926342E+00
102  1.0100000000000E+00 -4.8114913449056E-01  1.3942232966786E+00
103  1.0200000000000E+00 -4.7400932698670E-01  1.4060116286298E+00
104  1.0300000000000E+00 -4.6563056833125E-01  1.4161827887885E+00
105  1.0400000000000E+00 -4.5609954968597E-01  1.4246986006160E+00
106  1.0500000000000E+00 -4.4550523743426E-01  1.4315216687154E+00
107  1.0600000000000E+00 -4.3393846995809E-01  1.4366152116641E+00
108  1.0700000000000E+00 -4.2149154083589E-01  1.4399429783977E+00
109  1.0800000000000E+00 -4.0825776977488E-01  1.4414692551132E+00
110  1.0900000000000E+00 -3.9433106287540E-01  1.4411589677715E+00
111  1.1000000000000E+00 -3.7980546411515E-01  1.4389778832500E+00
112  1.1100000000000E+00 -3.6477470022973E-01  1.4348929100773E+00
113  1.1200000000000E+00 -3.4933172144804E-01  1.4288724975013E+00
114  1.1300000000000E+00 -3.3356824081140E-01  1.4208871294377E+00
115  1.1400000000000E+00 -3.1757427505622E-01  1.4109099076653E+00
116  1.1500000000000E+00 -3.0143769026801E-01  1.3989172165063E+00
117  1.1600000000000E+00 -2.8524375571165E-01  1.3848894592024E+00
118  1.1700000000000E+00 -2.6907470940578E-01  1.3688118543051E+00
119  1.1800000000000E+00 -2.5300933913195E-01  1.3506752786736E+00
120  1.1900000000000E+00 -2.3712258264758E-01  1.3304771421589E+00
121  1.2000000000000E+00 -2.2148515090241E-01  1.3082222777670E+00
122  1.2100000000000E+00 -2.0616317803818E-01  1.2839238300759E+00
123  1.2200000000000E+00 -1.9121790187663E-01  1.2576041239425E+00
124  1.2300000000000E+00 -1.7670537847351E-01  1.2292954951017E+00
125  1.2400000000000E+00 -1.6267623413164E-01  1.1990410641436E+00
126  1.2500000000000E+00 -1.4917545802675E-01  1.1668954355566E+00
127  1.2600000000000E+00 -1.3624223830766E-01  1.1329253040586E+00
128  1.2700000000000E+00 -1.2390984418639E-01  1.0972099512881E+00
129  1.2800000000000E+00 -1.1220555613936E-01  1.0598416171032E+00
130  1.2900000000000E+00 -1.0115064590382E-01  1.0209257311937E+00
131  1.3000000000000E+00 -9.0760407471477E-02  9.8058099247367E-01
132  1.3100000000000E+00 -8.1044239768134E-02  9.3893928572348E-01
133  1.3200000000000E+00 -7.2005781165396E-02  8.9614542718262E-01
134  1.3300000000000E+00 -6.3643095404109E-02  8.5235673323230E-01
135  1.3400000000000E+00 -5.5948907929536E-02  8.0774240889252E-01
136  1.3500000000000E+00 -4.8910891050801E-02  7.6248275557043E-01
137  1.3600000000000E+00 -4.2511995753088E-02  7.1676820027161E-01
138  1.3700000000000E+00 -3.6730827411104E-02  6.7079815131942E-01
139  1.3800000000000E+00 -3.1542062095334E-02  6.2477968842142E-01
140  1.3900000000000E+00 -2.6916899627417E-02  5.7892609767753E-01
141  1.4000000000000E+00 -2.2823549042608E-02  5.3345526476030E-01
142  1.4100000000000E+00 -1.9227741656101E-02  4.8858794200955E-01
143  1.4200000000000E+00 -1.6093266521084E-02  4.4454590748653E-01
144  1.4300000000000E+00 -1.3382522710613E-02  4.0155003611853E-01
145  1.4400000000000E+00 -1.1057082560783E-02  3.5981830488760E-01
146  1.4500000000000E+00 -9.0782597850418E-03  3.1956375553782E-01
147  1.4600000000000E+00 -7.4076762108543E-03  2.8099243948407E-01
148  1.4700000000000E+00 -6.0078208065516E-03  2.4430137045842E-01
149  1.4800000000000E+00 -4.8425946580008E-03  2.0967651092564E-01
150  1.4900000000000E+00 -3.8778355800603E-03  1.7729081877593E-01
151  1.5000000000000E+00 -3.0818188543163E-03  1.4730236018151E-01
152  1.5100000000000E+00 -2.4257122064193E-03  1.1985262477660E-01
153  1.5200000000000E+00 -1.8840501820156E-03  9.5064630174504E-02
154  1.5300000000000E+00 -1.4374066924700E-03  7.3022369798193E-02
155  1.5400000000000E+00 -1.0697261338980E-03  5.3792314947608E-02
156  1.5500000000000E+00 -7.6492860670887E-04  3.7454533664984E-02
157  1.5600000000000E+00 -5.1246313477423E-04  2.4060533652072E-02
158  1.5700000000000E+00 -3.0705971992434E-04  1.3635081445235E-02
159  1.5800000000000E+00 -1.4884593583423E-04  6.1774730241460E-03
160  1.5900000000000E+00 -4.2749109236772E-05  1.6436300111870E-03
161  1.6000000000000E+00 -1.0301699709215E-06  3.5999819097151E-05
162  1.6100000000000E+00  1.6564841876691E-07 -5.6590600866578E-06
163  1.6200000000000E+00 -1.2507459430790E-08  4.5018787475975E-07
164  1.63  0.  0.
165  1.64  0.  0.
166  1.65  0.  0.
167  1.66  0.  0.
168  1.67  0.  0.
169  1.68  0.  0.
170  1.69  0.  0.
171  1.70  0.  0.
172  1.71  0.  0.
173  1.72  0.  0.
174  1.73  0.  0.
175  1.74  0.  0.
176  1.75  0.  0.
177  1.76  0.  0.
178  1.77  0.  0.
179  1.78  0.  0.
180  1.79  0.  0.
181  1.80  0.  0.
182  1.81  0.  0.
183  1.82  0.  0.
184  1.83  0.  0.
185  1.84  0.  0.
186  1.85  0.  0.
187  1.86  0.  0.
188  1.87  0.  0.
189  1.88  0.  0.
190  1.89  0.  0.
191  1.90  0.  0.
192  1.91  0.  0.
193  1.92  0.  0.
194  1.93  0.  0.
195  1.94  0.  0.
196  1.95  0.  0.
197  1.96  0.  0.
198  1.97  0.  0.
199  1.98  0.  0.
200  1.99  0.  0.
201  2.00  0.  0.
202  2.01  0.  0.
203  2.02  0.  0.
204  2.03  0.  0.
205  2.04  0.  0.
206  2.05  0.  0.
207  2.06  0.  0.
208  2.07  0.  0.
209  2.08  0.  0.
210  2.09  0.  0.
211  2.10  0.  0.
212  2.11  0.  0.
213  2.12  0.  0.
214  2.13  0.  0.
215  2.14  0.  0.
216  2.15  0.  0.
217  2.16  0.  0.
218  2.17  0.  0.
219  2.18  0.  0.
220  2.19  0.  0.
221  2.20  0.  0.
222  2.21  0.  0.
223  2.22  0.  0.
224  2.23  0.  0.
225  2.24  0.  0.
226  2.25  0.  0.
227  2.26  0.  0.
228  2.27  0.  0.
229  2.28  0.  0.
230  2.29  0.  0.
231  2.30  0.  0.
232  2.31  0.  0.
233  2.32  0.  0.
234  2.33  0.  0.
235  2.34  0.  0.
236  2.35  0.  0.
237  2.36  0.  0.
238  2.37  0.  0.
239  2.38  0.  0.
240  2.39  0.  0.
241  2.40  0.  0.
242  2.41  0.  0.
243  2.42  0.  0.
244  2.43  0.  0.
245  2.44  0.  0.
246  2.45  0.  0.
247  2.46  0.  0.
248  2.47  0.  0.
249  2.48  0.  0.
250  2.49  0.  0.
251  2.50  0.  0.
252  2.51  0.  0.
253  2.52  0.  0.
254  2.53  0.  0.
255  2.54  0.  0.
256  2.55  0.  0.
257  2.56  0.  0.
258  2.57  0.  0.
259  2.58  0.  0.
260  2.59  0.  0.
261  2.60  0.  0.
262  2.61  0.  0.
263  2.62  0.  0.
264  2.63  0.  0.
265  2.64  0.  0.
266  2.65  0.  0.
267  2.66  0.  0.
268  2.67  0.  0.
269  2.68  0.  0.
270  2.69  0.  0.
271  2.70  0.  0.
272  2.71  0.  0.
273  2.72  0.  0.
274  2.73  0.  0.
275  2.74  0.  0.
276  2.75  0.  0.
277  2.76  0.  0.
278  2.77  0.  0.
279  2.78  0.  0.
280  2.79  0.  0.
281  2.80  0.  0.
282  2.81  0.  0.
283  2.82  0.  0.
284  2.83  0.  0.
285  2.84  0.  0.
286  2.85  0.  0.
287  2.86  0.  0.
288  2.87  0.  0.
289  2.88  0.  0.
290  2.89  0.  0.
291  2.90  0.  0.
292  2.91  0.  0.
293  2.92  0.  0.
294  2.93  0.  0.
295  2.94  0.  0.
296  2.95  0.  0.
297  2.96  0.  0.
298  2.97  0.  0.
299  2.98  0.  0.
300  2.99  0.  0.
301  3.00  0.  0.
302  3.01  0.  0.
303  3.02  0.  0.
304  3.03  0.  0.
305  3.04  0.  0.
306  3.05  0.  0.
307  3.06  0.  0.
308  3.07  0.  0.
309  3.08  0.  0.
310  3.09  0.  0.
311  3.10  0.  0.
312  3.11  0.  0.
313  3.12  0.  0.
314  3.13  0.  0.
315  3.14  0.  0.
316  3.15  0.  0.
317  3.16  0.  0.
318  3.17  0.  0.
319  3.18  0.  0.
320  3.19  0.  0.
321  3.20  0.  0.
322  3.21  0.  0.
323  3.22  0.  0.
324  3.23  0.  0.
325  3.24  0.  0.
326  3.25  0.  0.
327  3.26  0.  0.
328  3.27  0.  0.
329  3.28  0.  0.
330  3.29  0.  0.
331  3.30  0.  0.
332  3.31  0.  0.
333  3.32  0.  0.
334  3.33  0.  0.
335  3.34  0.  0.
336  3.35  0.  0.
337  3.36  0.  0.
338  3.37  0.  0.
339  3.38  0.  0.
340  3.39  0.  0.
341  3.40  0.  0.
342  3.41  0.  0.
343  3.42  0.  0.
344  3.43  0.  0.
345  3.44  0.  0.
346  3.45  0.  0.
347  3.46  0.  0.
348  3.47  0.  0.
349  3.48  0.  0.
350  3.49  0.  0.
351  3.50  0.  0.
352  3.51  0.  0.
353  3.52  0.  0.
354  3.53  0.  0.
355  3.54  0.  0.
356  3.55  0.  0.
357  3.56  0.  0.
358  3.57  0.  0.
359  3.58  0.  0.
360  3.59  0.  0.
361  3.60  0.  0.
362  3.61  0.  0.
363  3.62  0.  0.
364  3.63  0.  0.
365  3.64  0.  0.
366  3.65  0.  0.
367  3.66  0.  0.
368  3.67  0.  0.
369  3.68  0.  0.
370  3.69  0.  0.
371  3.70  0.  0.
372  3.71  0.  0.
373  3.72  0.  0.
374  3.73  0.  0.
375  3.74  0.  0.
376  3.75  0.  0.
377  3.76  0.  0.
378  3.77  0.  0.
379  3.78  0.  0.
380  3.79  0.  0.
381  3.80  0.  0.
382  3.81  0.  0.
383  3.82  0.  0.
384  3.83  0.  0.
385  3.84  0.  0.
386  3.85  0.  0.
387  3.86  0.  0.
388  3.87  0.  0.
389  3.88  0.  0.
390  3.89  0.  0.
391  3.90  0.  0.
392  3.91  0.  0.
393  3.92  0.  0.
394  3.93  0.  0.
395  3.94  0.  0.
396  3.95  0.  0.
397  3.96  0.  0.
398  3.97  0.  0.
399  3.98  0.  0.
400  3.99  0.  0.
401  4.00  0.  0.
402  4.01  0.  0.
403  4.02  0.  0.
404  4.03  0.  0.
405  4.04  0.  0.
406  4.05  0.  0.
407  4.06  0.  0.
408  4.07  0.  0.
409  4.08  0.  0.
410  4.09  0.  0.
411  4.10  0.  0.
412  4.11  0.  0.
413  4.12  0.  0.
414  4.13  0.  0.
415  4.14  0.  0.
416  4.15  0.  0.
417  4.16  0.  0.
418  4.17  0.  0.
419  4.18  0.  0.
420  4.19  0.  0.
421  4.20  0.  0.
422  4.21  0.  0.
423  4.22  0.  0.
424  4.23  0.  0.
425  4.24  0.  0.
426  4.25  0.  0.
427  4.26  0.  0.
428  4.27  0.  0.
429  4.28  0.  0.
430  4.29  0.  0.
431  4.30  0.  0.
432  4.31  0.  0.
433  4.32  0.  0.
434  4.33  0.  0.
435  4.34  0.  0.
436  4.35  0.  0.
437  4.36  0.  0.
438  4.37  0.  0.
439  4.38  0.  0.
440  4.39  0.  0.
441  4.40  0.  0.
442  4.41  0.  0.
443  4.42  0.  0.
444  4.43  0.  0.
445  4.44  0.  0.
446  4.45  0.  0.
447  4.46  0.  0.
448  4.47  0.  0.
449  4.48  0.  0.
450  4.49  0.  0.
451  4.50  0.  0.
452  4.51  0.  0.
453  4.52  0.  0.
454  4.53  0.  0.
455  4.54  0.  0.
456  4.55  0.  0.
457  4.56  0.  0.
458  4.57  0.  0.
459  4.58  0.  0.
460  4.59  0.  0.
461  4.60  0.  0.
462  4.61  0.  0.
463  4.62  0.  0.
464  4.63  0.  0.
465  4.64  0.  0.
466  4.65  0.  0.
467  4.66  0.  0.
468  4.67  0.  0.
469  4.68  0.  0.
470  4.69  0.  0.
471  4.70  0.  0.
472  4.71  0.  0.
473  4.72  0.  0.
474  4.73  0.  0.
475  4.74  0.  0.
476  4.75  0.  0.
477  4.76  0.  0.
478  4.77  0.  0.
479  4.78  0.  0.
480  4.79  0.  0.
481  4.80  0.  0.
482  4.81  0.  0.
483  4.82  0.  0.
484  4.83  0.  0.
485  4.84  0.  0.
486  4.85  0.  0.
487  4.86  0.  0.
488  4.87  0.  0.
489  4.88  0.  0.
490  4.89  0.  0.
491  4.90  0.  0.
492  4.91  0.  0.
493  4.92  0.  0.
494  4.93  0.  0.
495  4.94  0.  0.
496  4.95  0.  0.
497  4.96  0.  0.
498  4.97  0.  0.
499  4.98  0.  0.
500  4.99  0.  0.
501  5.00  0.  0.
502  5.01  0.  0.
503  5.02  0.  0.
504  5.03  0.  0.
505  5.04  0.  0.
506  5.05  0.  0.
507  5.06  0.  0.
508  5.07  0.  0.
509  5.08  0.  0.
510  5.09  0.  0.
511  5.10  0.  0.
512  5.11  0.  0.
513  5.12  0.  0.
514  5.13  0.  0.
515  5.14  0.  0.
516  5.15  0.  0.
517  5.16  0.  0.
518  5.17  0.  0.
519  5.18  0.  0.
520  5.19  0.  0.
521  5.20  0.  0.
522  5.21  0.  0.
523  5.22  0.  0.
524  5.23  0.  0.
525  5.24  0.  0.
526  5.25  0.  0.
527  5.26  0.  0.
528  5.27  0.  0.
529  5.28  0.  0.
530  5.29  0.  0.
531  5.30  0.  0.
532  5.31  0.  0.
533  5.32  0.  0.
534  5.33  0.  0.
535  5.34  0.  0.
536  5.35  0.  0.
537  5.36  0.  0.
538  5.37  0.  0.
539  5.38  0.  0.
540  5.39  0.  0.
541  5.40  0.  0.
542  5.41  0.  0.
543  5.42  0.  0.
544  5.43  0.  0.
545  5.44  0.  0.
546  5.45  0.  0.
547  5.46  0.  0.
548  5.47  0.  0.
549  5.48  0.  0.
550  5.49  0.  0.
551  5.50  0.  0.
552  5.51  0.  0.
553  5.52  0.  0.
554  5.53  0.  0.
555  5.54  0.  0.
556  5.55  0.  0.
557  5.56  0.  0.
558  5.57  0.  0.
559  5.58  0.  0.
560  5.59  0.  0.
561  5.60  0.  0.
562  5.61  0.  0.
563  5.62  0.  0.
564  5.63  0.  0.
565  5.64  0.  0.
566  5.65  0.  0.
567  5.66  0.  0.
568  5.67  0.  0.
569  5.68  0.  0.
570  5.69  0.  0.
571  5.70  0.  0.
572  5.71  0.  0.
573  5.72  0.  0.
574  5.73  0.  0.
575  5.74  0.  0.
576  5.75  0.  0.
577  5.76  0.  0.
578  5.77  0.  0.
579  5.78  0.  0.
580  5.79  0.  0.
581  5.80  0.  0.
582  5.81  0.  0.
583  5.82  0.  0.
584  5.83  0.  0.
585  5.84  0.  0.
586  5.85  0.  0.
587  5.86  0.  0.
588  5.87  0.  0.
589  5.88  0.  0.
590  5.89  0.  0.
591  5.90  0.  0.
592  5.91  0.  0.
593  5.92  0.  0.
594  5.93  0.  0.
595  5.94  0.  0.
596  5.95  0.  0.
597  5.96  0.  0.
598  5.97  0.  0.
599  5.98  0.  0.
600  5.99  0.  0.
1                         1.3795405253505E+01  1.1842895129406E+00 -6.7659179576772E-02
1  0.0000000000000E+00 -2.8473655100392E-09  6.0517971398055E-09 -6.0331369206024E-09
2  1.0000000000000E-02  1.6346600096152E-03 -2.9602133012991E-04  4.8047489599027E-04
3  2.0000000000000E-02  6.5349530099109E-03 -1.1868909145572E-03  1.9242100875114E-03
4  3.0000000000000E-02  1.4689761194016E-02 -2.6808749740172E-03  4.3379933309838E-03
5  4.0000000000000E-02  2.6080367519599E-02 -4.7912522817428E-03  7.7326619905230E-03
6  5.0000000000000E-02  4.0680180599394E-02 -7.5355793319400E-03  1.2122402277185E-02
7  6.0000000000000E-02  5.8454361291737E-02 -1.0934686428333E-02  1.7523793075976E-02
8  7.0000000000000E-02  7.9359362434696E-02 -1.5011428925698E-02  2.3954618616415E-02
9  8.0000000000000E-02  1.0334239601478E-01 -1.9789223909104E-02  3.1432480275589E-02
10  9.0000000000000E-02  1.3034084460327E-01 -2.5290408017043E-02  3.9973243189999E-02
11  1.0000000000000E-01  1.6028163607494E-01 -3.1534456792092E-02  4.9589357975201E-02
12  1.1000000000000E-01  1.9308060239711E-01 -3.8536109776070E-02  6.0288101609013E-02
13  1.2000000000000E-01  2.2864184460118E-01 -4.6303448473176E-02  7.2069784341175E-02
14  1.3000000000000E-01  2.6685712689340E-01 -5.4835976220150E-02  8.4925971284101E-02
15  1.4000000000000E-01  3.0760532320476E-01 -6.4122749881963E-02  9.8837768071528E-02
16  1.5000000000000E-01  3.5075193930999E-01 -7.4140613111212E-02  1.1377421962089E-01
17  1.6000000000000E-01  3.9614873296105E-01 -8.4852579665154E-02  1.2969086960048E-01
18  1.7000000000000E-01  4.4363345329142E-01 -9.6206412986518E-02  1.4652852570378E-01
19  1.8000000000000E-01  4.9302971907111E-01 -1.0813344495983E-01  1.6421227231430E-01
20  1.9000000000000E-01  5.4414705325970E-01 -1.2054767251514E-01  1.8265076766853E-01
21  2.0000000000000E-01  5.9678108875328E-01 -1.3334516564451E-01  2.0173585727399E-01
22  2.1000000000000E-01  6.5071395729744E-01 -1.4640381451860E-01  2.2134252921908E-01
23  2.2000000000000E-01  7.0571487029888E-01 -1.5958343685610E-01  2.4132923023503E-01
24  2.3000000000000E-01  7.6154089677210E-01 -1.7272625963164E-01  2.6153855407532E-01
25  2.4000000000000E-01  8.1793793997417E-01 -1.8565778174718E-01  2.8179830610337E-01
26  2.5000000000000E-01  8.7464191047937E-01 -1.9818801658461E-01  3.0192294008192E-01
27  2.6000000000000E-01  9.3138008960163E-01 -2.1011310555448E-01  3.2171535519323E-01
28  2.7000000000000E-01  9.8787267326206E-01 -2.2121728601465E-01  3.4096903345112E-01
29  2.8000000000000E-01  1.0438344826960E+00 -2.3127518940695E-01  3.5947049005356E-01
30  2.9000000000000E-01  1.0989768248747E+00 -2.4005443830376E-01  3.7700200202685E-01
31  3.0000000000000E-01  1.1530094822509E+00 -2.4731850441445E-01  3.9334457387850E-01
32  3.1000000000000E-01  1.2056428084923E+00 -2.5282978361242E-01  4.0828109304804E-01
33  3.2000000000000E-01  1.2565899043062E+00 -2.5635283883195E-01  4.2159962285044E-01
34  3.3000000000000E-01  1.3055688453299E+00 -2.5765775736167E-01  4.3309677645930E-01
35  3.4000000000000E-01  1.3523049324205E+00 -2.5652356572323E-01  4.4258111237181E-01
36  3.5000000000000E-01  1.3965329335552E+00 -2.5274164304570E-01  4.4987648981048E-01
37  3.6000000000000E-01  1.4379992859768E+00 -2.4611907268436E-01  4.5482532170218E-01
38  3.7000000000000E-01  1.4764642272099E+00 -2.3648187182203E-01  4.5729166326662E-01
39  3.8000000000000E-01  1.5117038241388E+00 -2.2367803994431E-01  4.5716407585023E-01
40  3.9000000000000E-01  1.5435118704606E+00 -2.0758036938617E-01  4.5435820844527E-01
41  4.0000000000000E-01  1.5717016245156E+00 -1.8808896457531E-01  4.4881904329702E-01
42  4.1000000000000E-01  1.5961073616980E+00 -1.6513342108931E-01  4.4052275706430E-01
43  4.2000000000000E-01  1.6165857183463E+00 -1.3867462112803E-01  4.2947815507374E-01
44  4.3000000000000E-01  1.6330168071530E+00 -1.0870610837595E-01  4.1572764319492E-01
45  4.4000000000000E-01  1.6453050876526E+00 -7.5255012385476E-02  3.9934770963485E-01
46  4.5000000000000E-01  1.6533799792018E+00 -3.8382500412826E-02  3.8044889736825E-01
47  4.6000000000000E-01  1.6571962079623E+00  1.8162570555287E-03  3.5917525682985E-01
48  4.7000000000000E-01  1.6567338836838E+00  4.5212612195268E-02  3.3570327772995E-01
49  4.8000000000000E-01  1.6519983064618E+00  9.1645453428652E-02  3.1024030824316E-01
50  4.9000000000000E-01  1.6430195080438E+00  1.4092269412203E-01  2.8302247918125E-01
51  5.0000000000000E-01  1.6298515365939E+00  1.9282321512329E-01  2.5431215991747E-01
52  5.1000000000000E-01  1.6125714980059E+00  2.4709923149632E-01  2.2439498160130E-01
53  5.2000000000000E-01  1.5912783708164E+00  3.0347904593050E-01  1.9357647141778E-01
54  5.3000000000000E-01  1.5660916154232E+00  3.6167014407082E-01  1.6217834914190E-01
55  5.4000000000000E-01  1.5371496015917E+00  4.2136258057499E-01  1.3053454386230E-01
56  5.5000000000000E-01  1.5046078810727E+00  4.8223259918687E-01  9.8986994367193E-02
57  5.6000000000000E-01  1.4686373345018E+00  5.4394642563959E-01  6.7881301176434E-02
58  5.7000000000000E-01  1.4294222235514E+00  6.0616416885721E-01  3.7562301474531E-02
59  5.8000000000000E-01  1.3871581805312E+00  6.6854376379001E-01  8.3696401703335E-03
60  5.9000000000000E-01  1.3420501682532E+00  7.3074488834350E-01 -1.9366589066834E-02
61  6.0000000000000E-01  1.2943104429768E+00  7.9243278727436E-01 -4.5330059695627E-02
62  6.1000000000000E-01  1.2441565526294E+00  8.5328193763029E-01 -6.9222214139371E-02
63  6.2000000000000E-01  1.1918094012651E+00  9.1297949328131E-01 -9.0765984063390E-02
64  6.3000000000000E-01  1.1374914089023E+00  9.7122845028200E-01 -1.0970916634555E-01
65  6.4000000000000E-01  1.0814247935045E+00  1.0277504801446E+00 -1.2582739796480E-01
66  6.5000000000000E-01  1.0238299989765E+00  1.0822883844966E+00 -1.3892668011492E-01
67  6.6000000000000E-01  9.6492428970396E-01  1.1346081319292E+00 -1.4884540991623E-01
68  6.7000000000000E-01  9.0492052842673E-01  1.1845004459745E+00 -1.5545588700124E-01
69  6.8000000000000E-01  8.4402615017743E-01  1.2317819219351E+00 -1.5866527182794E-01
70  6.9000000000000E-01  7.8244234072076E-01  1.2762956595493E+00 -1.5841598264811E-01
71  7.0000000000000E-01  7.2036342347630E-01  1.3179114080484E+00 -1.5468552843877E-01
72  7.1000000000000E-01  6.5797645438914E-01  1.3565252298421E+00 -1.4748578559452E-01
73  7.2000000000000E-01  5.9546101971830E-01  1.3920586986858E+00 -1.3686173657674E-01
74  7.3000000000000E-01  5.3298922733416E-01  1.4244576575300E+00 -1.2288969882203E-01
75  7.4000000000000E-01  4.7072587794227E-01  1.4536905701511E+00 -1.0567508182466E-01
76  7.5000000000000E-01  4.0882879876770E-01  1.4797465089305E+00 -8.5349719244290E-02
77  7.6000000000000E-01  3.4744931872381E-01  1.5026328286118E+00 -6.2068830961732E-02
78  7.7000000000000E-01  2.8673286102594E-01  1.5223725823738E+00 -3.6007677059468E-02
79  7.8000000000000E-01  2.2681962665967E-01  1.5390017419651E+00 -7.3579715831408E-03
80  7.9000000000000E-01  1.6784534013353E-01  1.5525662878368E+00  2.3675871467344E-02
81  8.0000000000000E-01  1.0994202758160E-01  1.5631192380903E+00  5.6880584274552E-02
82  8.1000000000000E-01  5.3238796567025E-02  1.5707176865482E+00  9.2037906094970E-02
83  8.2000000000000E-01 -2.1374131049143E-03  1.5754199203202E+00  1.2892838131738E-01
84  8.3000000000000E-01 -5.6061137619371E-02  1.5772826858496E+00  1.6733501841612E-01
85  8.4000000000000E-01 -1.0840778517407E-01  1.5763586696022E+00  2.0704673636159E-01
86  8.5000000000000E-01 -1.5905314656924E-01  1.5726942553392E+00  2.4786152936111E-01
87  8.6000000000000E-01 -2.0787304455529E-01  1.5663276143600E+00  2.8958928652075E-01
88  8.7000000000000E-01 -2.5474314296258E-01  1.5572871783137E+00  3.3205421003943E-01
89  8.8000000000000E-01 -2.9953893295276E-01  1.5455905362692E+00  3.7509678375094E-01
90  8.9000000000000E-01 -3.4213590959614E-01  1.5312437888560E+00  4.1857525305955E-01
91  9.0000000000000E-01 -3.8240994747203E-01  1.5142413825957E+00  4.6236658740561E-01
92  9.1000000000000E-01 -4.2023787919922E-01  1.4945664372358E+00  5.0636690715268E-01
93  9.2000000000000E-01 -4.5549827582258E-01  1.4721915681485E+00  5.5049136800552E-01
94  9.3000000000000E-01 -4.8807242291249E-01  1.4470801949011E+00  5.9467350752958E-01
95  9.4000000000000E-01 -5.1784548117744E-01  1.4191883161389E+00  6.3886406982287E-01
96  9.5000000000000E-01 -5.4470781545212E-01  1.3884667201718E+00  6.8302933566568E-01
97  9.6000000000000E-01 -5.6855647120648E-01  1.3548635903458E+00  7.2714899631403E-01
98  9.7000000000000E-01 -5.8929677332890E-01  1.3183274546131E+00  7.7121361928912E-01
99  9.8000000000000E-01 -6.0684401796130E-01  1.2788104198996E+00  8.1522176384359E-01
100  9.9000000000000E-01 -6.2112522470009E-01  1.2362716240952E+00  8.5917681205140E-01
101  1.0000000000000E+00 -6.3208091360118E-01  1.1906808319302E+00  9.0308358850314E-01
102  1.0100000000000E+00 -6.3966686921394E-01  1.1420220958059E+00  9.4694484723256E-01
103  1.0200000000000E+00 -6.4385585237391E-01  1.0902973989377E+00  9.9075770862895E-01
104  1.0300000000000E+00 -6.4463921975678E-01  1.0355301960579E+00  1.0345101315934E+00
105  1.0400000000000E+00 -6.4202841126405E-01  9.7776876646970E-01  1.0781775070149E+00
106  1.0500000000000E+00 -6.3605626619482E-01  9.1708929548936E-01  1.1217194577250E+00
107  1.0600000000000E+00 -6.2677813085619E-01  8.5359860327392E-01  1.1650769274377E+00
108  1.0700000000000E+00 -6.1427272276042E-01  7.8743644465949E-01  1.2081696368265E+00
109  1.0800000000000E+00 -5.9864271982956E-01  7.1877730990834E-01  1.2508939788708E+00
110  1.0900000000000E+00 -5.8001504701083E-01  6.4783166403888E-01  1.2931214180582E+00
111  1.1000000000000E+00 -5.5854083736653E-01  5.7484657163206E-01  1.3346974490265E+00
112  1.1100000000000E+00 -5.3439504993454E-01  5.0010566445606E-01  1.3754411599734E+00
113  1.1200000000000E+00 -5.0777573239775E-01  4.2392842080189E-01  1.4151454348068E+00
114  1.1300000000000E+00 -4.7890292273915E-01  3.4666873784733E-01  1.4535778157579E+00
115  1.1400000000000E+00 -4.4801719048773E-01  2.6871279144458E-01  1.4904820352839E+00
116  1.1500000000000E+00 -4.1537782477190E-01  1.9047619124378E-01  1.5255802127443E+00
117  1.1600000000000E+00 -3.8126068305528E-01  1.1240045273662E-01  1.5585756978388E+00
118  1.1700000000000E+00 -3.4595572102381E-01  3.4948821406177E-02  1.5891565293765E+00
119  1.1800000000000E+00 -3.0976423049396E-01 -4.1398502566862E-02  1.6169994648636E+00
120  1.1900000000000E+00 -2.7299581828020E-01 -1.1614967795150E-01  1.6417745239457E+00
121  1.2000000000000E+00 -2.3596516461627E-01 -1.8880700152709E-01  1.6631499770789E+00
122  1.2100000000000E+00 -1.9898860478692E-01 -2.5887306893613E-01  1.6807977003171E+00
123  1.2200000000000E+00 -1.6238058207705E-01 -3.2585722422872E-01  1.6943988078076E+00
124  1.2300000000000E+00 -1.2645002379779E-01 -3.8928219711628E-01  1.7036494658888E+00