Fl    ONCVPSP-4.0.1  r_core=   1.60082   1.60082   1.60082   1.60082
114.0000     22.0000      220206    zatom,zion,pspd
8      11   3     4   600     0    pspcod,pspxc,lmax,lloc,mmax,r2well
5.99000000  5.00000000  0.00000000    rchrg fchrg qchrg
2     2     2     1     0    nproj
1     1           extension_switch
0                         9.4066707328819E+00 -4.3418700129294E-01
1  0.0000000000000E+00  1.3233769635690E-10  8.4729885607704E-10
2  1.0000000000000E-02  7.6860398394294E-02  1.3963553880200E-02
3  2.0000000000000E-02  1.5354853365793E-01  2.7926979275834E-02
4  3.0000000000000E-02  2.2989250628282E-01  4.1889596610053E-02
5  4.0000000000000E-02  3.0572114489488E-01  5.5849636567383E-02
6  5.0000000000000E-02  3.8086437250886E-01  6.9803726118342E-02
7  6.0000000000000E-02  4.5515357531203E-01  8.3746411001949E-02
8  7.0000000000000E-02  5.2842197466138E-01  9.7669725804902E-02
9  8.0000000000000E-02  6.0050500284619E-01  1.1156282192893E-01
10  9.0000000000000E-02  6.7124068300705E-01  1.2541166270521E-01
11  1.0000000000000E-01  7.4047001341582E-01  1.3919879371436E-01
12  1.1000000000000E-01  8.0803735611145E-01  1.5290319502159E-01
13  1.2000000000000E-01  8.7379082965930E-01  1.6650022056267E-01
14  1.3000000000000E-01  9.3758270555874E-01  1.7996162834063E-01
15  1.4000000000000E-01  9.9926980757148E-01  1.9325570344316E-01
16  1.5000000000000E-01  1.0587139129851E+00  2.0634747419310E-01
17  1.6000000000000E-01  1.1157821545668E+00  2.1919902002850E-01
18  1.7000000000000E-01  1.1703474217088E+00  2.3176986800245E-01
19  1.8000000000000E-01  1.2222887590184E+00  2.4401747312580E-01
20  1.9000000000000E-01  1.2714917603767E+00  2.5589777617596E-01
21  2.0000000000000E-01  1.3178489562722E+00  2.6736583108911E-01
22  2.1000000000000E-01  1.3612601920255E+00  2.7837649266762E-01
23  2.2000000000000E-01  1.4016329943560E+00  2.8888515409311E-01
24  2.3000000000000E-01  1.4388829236044E+00  2.9884852265960E-01
25  2.4000000000000E-01  1.4729339088246E+00  3.0822542125017E-01
26  2.5000000000000E-01  1.5037185628898E+00  3.1697760239017E-01
27  2.6000000000000E-01  1.5311784747321E+00  3.2507056123331E-01
28  2.7000000000000E-01  1.5552644758421E+00  3.3247433358333E-01
29  2.8000000000000E-01  1.5759368782110E+00  3.3916426502892E-01
30  2.9000000000000E-01  1.5931656809869E+00  3.4512173747552E-01
31  3.0000000000000E-01  1.6069307432495E+00  3.5033483979305E-01
32  3.1000000000000E-01  1.6172219204842E+00  3.5479896995712E-01
33  3.2000000000000E-01  1.6240391625395E+00  3.5851735693506E-01
34  3.3000000000000E-01  1.6273925711059E+00  3.6150149164325E-01
35  3.4000000000000E-01  1.6273024150259E+00  3.6377145756342E-01
36  3.5000000000000E-01  1.6237991020586E+00  3.6535615303367E-01
37  3.6000000000000E-01  1.6169231060550E+00  3.6629339880159E-01
38  3.7000000000000E-01  1.6067248488548E+00  3.6662992612052E-01
39  3.8000000000000E-01  1.5932645365920E+00  3.6642124245490E-01
40  3.9000000000000E-01  1.5766119504802E+00  3.6573137371287E-01
41  4.0000000000000E-01  1.5568461925401E+00  3.6463248381097E-01
42  4.1000000000000E-01  1.5340553871299E+00  3.6320437426862E-01
43  4.2000000000000E-01  1.5083363395268E+00  3.6153386839789E-01
44  4.3000000000000E-01  1.4797941531929E+00  3.5971408646668E-01
45  4.4000000000000E-01  1.4485418077268E+00  3.5784361994135E-01
46  4.5000000000000E-01  1.4146996998528E+00  3.5602561452975E-01
47  4.6000000000000E-01  1.3783951501254E+00  3.5436677322114E-01
48  4.7000000000000E-01  1.3397618783267E+00  3.5297629183021E-01
49  4.8000000000000E-01  1.2989394508013E+00  3.5196474067816E-01
50  4.9000000000000E-01  1.2560727032030E+00  3.5144290696323E-01
51  5.0000000000000E-01  1.2113111423242E+00  3.5152061307244E-01
52  5.1000000000000E-01  1.1648083308290E+00  3.5230552655199E-01
53  5.2000000000000E-01  1.1167212588220E+00  3.5390197767787E-01
54  5.3000000000000E-01  1.0672097062516E+00  3.5640980054553E-01
55  5.4000000000000E-01  1.0164356001684E+00  3.5992321332817E-01
56  5.5000000000000E-01  9.6456237083748E-01  3.6452975283954E-01
57  5.6000000000000E-01  9.1175431063907E-01  3.7030927778722E-01
58  5.7000000000000E-01  8.5817593958408E-01  3.7733305412755E-01
59  5.8000000000000E-01  8.0399138112573E-01  3.8566293474758E-01
60  5.9000000000000E-01  7.4936375176414E-01  3.9535064432252E-01
61  6.0000000000000E-01  6.9445456772364E-01  4.0643717864973E-01
62  6.1000000000000E-01  6.3942317173495E-01  4.1895232606736E-01
63  6.2000000000000E-01  5.8442618268058E-01  4.3291431675478E-01
64  6.3000000000000E-01  5.2961697056663E-01  4.4832960381046E-01
65  6.4000000000000E-01  4.7514515897205E-01  4.6519277804407E-01
66  6.5000000000000E-01  4.2115615680199E-01  4.8348661643299E-01
67  6.6000000000000E-01  3.6779072084142E-01  5.0318226221207E-01
68  6.7000000000000E-01  3.1518455027186E-01  5.2423953262247E-01
69  6.8000000000000E-01  2.6346791398500E-01  5.4660734847134E-01
70  6.9000000000000E-01  2.1276531120522E-01  5.7022427788105E-01
71  7.0000000000000E-01  1.6319516562491E-01  5.9501918496244E-01
72  7.1000000000000E-01  1.1486955296471E-01  6.2091197265993E-01
73  7.2000000000000E-01  6.7893961600915E-02  6.4781440771042E-01
74  7.3000000000000E-01  2.2367085656936E-02  6.7563101455550E-01
75  7.4000000000000E-01 -2.1619350261893E-02  7.0426002416553E-01
76  7.5000000000000E-01 -6.3980735698061E-02  7.3359436308887E-01
77  7.6000000000000E-01 -1.0463968949885E-01  7.6352266764211E-01
78  7.7000000000000E-01 -1.4352614678475E-01  7.9393030801174E-01
79  7.8000000000000E-01 -1.8057741910051E-01  8.2470040715007E-01
80  7.9000000000000E-01 -2.1573822917320E-01  8.5571483971267E-01
81  8.0000000000000E-01 -2.4896072172108E-01  8.8685519689764E-01
82  8.1000000000000E-01 -2.8020445174426E-01  9.1800370389726E-01
83  8.2000000000000E-01 -3.0943635168545E-01  9.4904407774412E-01
84  8.3000000000000E-01 -3.3663067877804E-01  9.7986231461053E-01
85  8.4000000000000E-01 -3.6176894380349E-01  1.0103473970777E+00
86  8.5000000000000E-01 -3.8483982236317E-01  1.0403919135057E+00
87  8.6000000000000E-01 -4.0583904963597E-01  1.0698925833775E+00
88  8.7000000000000E-01 -4.2476929944546E-01  1.0987506843330E+00
89  8.8000000000000E-01 -4.4164004830521E-01  1.1268723785111E+00
90  8.9000000000000E-01 -4.5646742495088E-01  1.1541689377630E+00
91  9.0000000000000E-01 -4.6927404570908E-01  1.1805568692283E+00
92  9.1000000000000E-01 -4.8008883589962E-01  1.2059579446719E+00
93  9.2000000000000E-01 -4.8894683732503E-01  1.2302991388032E+00
94  9.3000000000000E-01 -4.9588900177226E-01  1.2535124835269E+00
95  9.4000000000000E-01 -5.0096197034226E-01  1.2755348466649E+00
96  9.5000000000000E-01 -5.0421783833564E-01  1.2963076451105E+00
97  9.6000000000000E-01 -5.0571390536114E-01  1.3157765036180E+00
98  9.7000000000000E-01 -5.0551241030122E-01  1.3338908714431E+00
99  9.8000000000000E-01 -5.0368025076684E-01  1.3506036098440E+00
100  9.9000000000000E-01 -5.0028868670414E-01  1.3658705639861E+00
101  1.0000000000000E+00 -4.9541302787963E-01  1.3796501330709E+00
102  1.0100000000000E+00 -4.8913230506787E-01  1.3919028525171E+00
103  1.0200000000000E+00 -4.8152892489603E-01  1.4025910017625E+00
104  1.0300000000000E+00 -4.7268830846212E-01  1.4116782507213E+00
105  1.0400000000000E+00 -4.6269851403533E-01  1.4191293571453E+00
106  1.0500000000000E+00 -4.5164984436674E-01  1.4249099260940E+00
107  1.0600000000000E+00 -4.3963443938115E-01  1.4289862414499E+00
108  1.0700000000000E+00 -4.2674585528398E-01  1.4313251779308E+00
109  1.0800000000000E+00 -4.1307863139589E-01  1.4318942003796E+00
110  1.0900000000000E+00 -3.9872784631594E-01  1.4306614552831E+00
111  1.1000000000000E+00 -3.8378866530888E-01  1.4275959575147E+00
112  1.1100000000000E+00 -3.6835588110503E-01  1.4226678732432E+00
113  1.1200000000000E+00 -3.5252345058827E-01  1.4158488978422E+00
114  1.1300000000000E+00 -3.3638403012231E-01  1.4071127255037E+00
115  1.1400000000000E+00 -3.2002851252106E-01  1.3964356051500E+00
116  1.1500000000000E+00 -3.0354556890093E-01  1.3837969751779E+00
117  1.1600000000000E+00 -2.8702119885399E-01  1.3691801676108E+00
118  1.1700000000000E+00 -2.7053829254740E-01  1.3525731704009E+00
119  1.1800000000000E+00 -2.5417620847990E-01  1.3339694349546E+00
120  1.1900000000000E+00 -2.3801037070718E-01  1.3133687144905E+00
121  1.2000000000000E+00 -2.2211188938001E-01  1.2907779175926E+00
122  1.2100000000000E+00 -2.0654720841965E-01  1.2662119603345E+00
123  1.2200000000000E+00 -1.9137778408109E-01  1.2396945996376E+00
124  1.2300000000000E+00 -1.7665979802555E-01  1.2112592301031E+00
125  1.2400000000000E+00 -1.6244390833815E-01  1.1809496264417E+00
126  1.2500000000000E+00 -1.4877504168401E-01  1.1488206138232E+00
127  1.2600000000000E+00 -1.3569222950127E-01  1.1149386489749E+00
128  1.2700000000000E+00 -1.2322849077831E-01  1.0793822956876E+00
129  1.2800000000000E+00 -1.1141076356386E-01  1.0422425795121E+00
130  1.2900000000000E+00 -1.0025988691514E-01  1.0036232078435E+00
131  1.3000000000000E+00 -8.9790634500984E-02  9.6364064328909E-01
132  1.3100000000000E+00 -8.0011800556301E-02  9.2242402014733E-01
133  1.3200000000000E+00 -7.0926338334330E-02  8.8011489598426E-01
134  1.3300000000000E+00 -6.2531550628403E-02  8.3686683264383E-01
135  1.3400000000000E+00 -5.4819331347349E-02  7.9284480352877E-01
136  1.3500000000000E+00 -4.7776456532747E-02  7.4822442660632E-01
137  1.3600000000000E+00 -4.1384922613960E-02  7.0319102527244E-01
138  1.3700000000000E+00 -3.5622329108510E-02  6.5793852194518E-01
139  1.3800000000000E+00 -3.0462302410682E-02  6.1266817195431E-01
140  1.3900000000000E+00 -2.5874956768222E-02  5.6758714795574E-01
141  1.4000000000000E+00 -2.1827388041846E-02  5.2290698764310E-01
142  1.4100000000000E+00 -1.8284195374502E-02  4.7884191995347E-01
143  1.4200000000000E+00 -1.5208025482922E-02  4.3560708718658E-01
144  1.4300000000000E+00 -1.2560133923396E-02  3.9341668246949E-01
145  1.4400000000000E+00 -1.0300957385290E-02  3.5248202375612E-01
146  1.4500000000000E+00 -8.3906908354257E-03  3.1300958701773E-01
147  1.4600000000000E+00 -6.7898631761287E-03  2.7519902244442E-01
148  1.4700000000000E+00 -5.4599049958274E-03  2.3924117829825E-01
149  1.4800000000000E+00 -4.3637019835283E-03  2.0531615753446E-01
150  1.4900000000000E+00 -3.4661276065316E-03  1.7359143276029E-01
151  1.5000000000000E+00 -2.7345514108745E-03  1.4422002532652E-01
152  1.5100000000000E+00 -2.1393012258994E-03  1.1733887930391E-01
153  1.5200000000000E+00 -1.6541434962292E-03  9.3067033882665E-02
154  1.5300000000000E+00 -1.2589122822808E-03  7.1485921436482E-02
155  1.5400000000000E+00 -9.3690042762890E-04  5.2659975521566E-02
156  1.5500000000000E+00 -6.7155501084901E-04  3.6666432416106E-02
157  1.5600000000000E+00 -4.5193257854482E-04  2.3554913310543E-02
158  1.5700000000000E+00 -2.7245812181259E-04  1.3349168985937E-02
159  1.5800000000000E+00 -1.3303712243308E-04  6.0483366539126E-03
160  1.5900000000000E+00 -3.8505521357877E-05  1.6094049520926E-03
161  1.6000000000000E+00 -9.2958392762958E-07  3.5251021526037E-05
162  1.6100000000000E+00  1.5113016535264E-07 -5.5421691588438E-06
163  1.6200000000000E+00 -1.1353916533054E-08  4.4085681208872E-07
164  1.63 -0. -0.
165  1.64  0.  0.
166  1.65  0.  0.
167  1.66  0.  0.
168  1.67  0.  0.
169  1.68  0.  0.
170  1.69  0.  0.
171  1.70  0.  0.
172  1.71  0.  0.
173  1.72  0.  0.
174  1.73  0.  0.
175  1.74  0.  0.
176  1.75  0.  0.
177  1.76  0.  0.
178  1.77  0.  0.
179  1.78  0.  0.
180  1.79  0.  0.
181  1.80  0.  0.
182  1.81  0.  0.
183  1.82  0.  0.
184  1.83  0.  0.
185  1.84  0.  0.
186  1.85  0.  0.
187  1.86  0.  0.
188  1.87  0.  0.
189  1.88  0.  0.
190  1.89  0.  0.
191  1.90  0.  0.
192  1.91  0.  0.
193  1.92  0.  0.
194  1.93  0.  0.
195  1.94  0.  0.
196  1.95  0.  0.
197  1.96  0.  0.
198  1.97  0.  0.
199  1.98  0.  0.
200  1.99  0.  0.
201  2.00  0.  0.
202  2.01  0.  0.
203  2.02  0.  0.
204  2.03  0.  0.
205  2.04  0.  0.
206  2.05  0.  0.
207  2.06  0.  0.
208  2.07  0.  0.
209  2.08  0.  0.
210  2.09  0.  0.
211  2.10  0.  0.
212  2.11  0.  0.
213  2.12  0.  0.
214  2.13  0.  0.
215  2.14  0.  0.
216  2.15  0.  0.
217  2.16  0.  0.
218  2.17  0.  0.
219  2.18  0.  0.
220  2.19  0.  0.
221  2.20  0.  0.
222  2.21  0.  0.
223  2.22  0.  0.
224  2.23  0.  0.
225  2.24  0.  0.
226  2.25  0.  0.
227  2.26  0.  0.
228  2.27  0.  0.
229  2.28  0.  0.
230  2.29  0.  0.
231  2.30  0.  0.
232  2.31  0.  0.
233  2.32  0.  0.
234  2.33  0.  0.
235  2.34  0.  0.
236  2.35  0.  0.
237  2.36  0.  0.
238  2.37  0.  0.
239  2.38  0.  0.
240  2.39  0.  0.
241  2.40  0.  0.
242  2.41  0.  0.
243  2.42  0.  0.
244  2.43  0.  0.
245  2.44  0.  0.
246  2.45  0.  0.
247  2.46  0.  0.
248  2.47  0.  0.
249  2.48  0.  0.
250  2.49  0.  0.
251  2.50  0.  0.
252  2.51  0.  0.
253  2.52  0.  0.
254  2.53  0.  0.
255  2.54  0.  0.
256  2.55  0.  0.
257  2.56  0.  0.
258  2.57  0.  0.
259  2.58  0.  0.
260  2.59  0.  0.
261  2.60  0.  0.
262  2.61  0.  0.
263  2.62  0.  0.
264  2.63  0.  0.
265  2.64  0.  0.
266  2.65  0.  0.
267  2.66  0.  0.
268  2.67  0.  0.
269  2.68  0.  0.
270  2.69  0.  0.
271  2.70  0.  0.
272  2.71  0.  0.
273  2.72  0.  0.
274  2.73  0.  0.
275  2.74  0.  0.
276  2.75  0.  0.
277  2.76  0.  0.
278  2.77  0.  0.
279  2.78  0.  0.
280  2.79  0.  0.
281  2.80  0.  0.
282  2.81  0.  0.
283  2.82  0.  0.
284  2.83  0.  0.
285  2.84  0.  0.
286  2.85  0.  0.
287  2.86  0.  0.
288  2.87  0.  0.
289  2.88  0.  0.
290  2.89  0.  0.
291  2.90  0.  0.
292  2.91  0.  0.
293  2.92  0.  0.
294  2.93  0.  0.
295  2.94  0.  0.
296  2.95  0.  0.
297  2.96  0.  0.
298  2.97  0.  0.
299  2.98  0.  0.
300  2.99  0.  0.
301  3.00  0.  0.
302  3.01  0.  0.
303  3.02  0.  0.
304  3.03  0.  0.
305  3.04  0.  0.
306  3.05  0.  0.
307  3.06  0.  0.
308  3.07  0.  0.
309  3.08  0.  0.
310  3.09  0.  0.
311  3.10  0.  0.
312  3.11  0.  0.
313  3.12  0.  0.
314  3.13  0.  0.
315  3.14  0.  0.
316  3.15  0.  0.
317  3.16  0.  0.
318  3.17  0.  0.
319  3.18  0.  0.
320  3.19  0.  0.
321  3.20  0.  0.
322  3.21  0.  0.
323  3.22  0.  0.
324  3.23  0.  0.
325  3.24  0.  0.
326  3.25  0.  0.
327  3.26  0.  0.
328  3.27  0.  0.
329  3.28  0.  0.
330  3.29  0.  0.
331  3.30  0.  0.
332  3.31  0.  0.
333  3.32  0.  0.
334  3.33  0.  0.
335  3.34  0.  0.
336  3.35  0.  0.
337  3.36  0.  0.
338  3.37  0.  0.
339  3.38  0.  0.
340  3.39  0.  0.
341  3.40  0.  0.
342  3.41  0.  0.
343  3.42  0.  0.
344  3.43  0.  0.
345  3.44  0.  0.
346  3.45  0.  0.
347  3.46  0.  0.
348  3.47  0.  0.
349  3.48  0.  0.
350  3.49  0.  0.
351  3.50  0.  0.
352  3.51  0.  0.
353  3.52  0.  0.
354  3.53  0.  0.
355  3.54  0.  0.
356  3.55  0.  0.
357  3.56  0.  0.
358  3.57  0.  0.
359  3.58  0.  0.
360  3.59  0.  0.
361  3.60  0.  0.
362  3.61  0.  0.
363  3.62  0.  0.
364  3.63  0.  0.
365  3.64  0.  0.
366  3.65  0.  0.
367  3.66  0.  0.
368  3.67  0.  0.
369  3.68  0.  0.
370  3.69  0.  0.
371  3.70  0.  0.
372  3.71  0.  0.
373  3.72  0.  0.
374  3.73  0.  0.
375  3.74  0.  0.
376  3.75  0.  0.
377  3.76  0.  0.
378  3.77  0.  0.
379  3.78  0.  0.
380  3.79  0.  0.
381  3.80  0.  0.
382  3.81  0.  0.
383  3.82  0.  0.
384  3.83  0.  0.
385  3.84  0.  0.
386  3.85  0.  0.
387  3.86  0.  0.
388  3.87  0.  0.
389  3.88  0.  0.
390  3.89  0.  0.
391  3.90  0.  0.
392  3.91  0.  0.
393  3.92  0.  0.
394  3.93  0.  0.
395  3.94  0.  0.
396  3.95  0.  0.
397  3.96  0.  0.
398  3.97  0.  0.
399  3.98  0.  0.
400  3.99  0.  0.
401  4.00  0.  0.
402  4.01  0.  0.
403  4.02  0.  0.
404  4.03  0.  0.
405  4.04  0.  0.
406  4.05  0.  0.
407  4.06  0.  0.
408  4.07  0.  0.
409  4.08  0.  0.
410  4.09  0.  0.
411  4.10  0.  0.
412  4.11  0.  0.
413  4.12  0.  0.
414  4.13  0.  0.
415  4.14  0.  0.
416  4.15  0.  0.
417  4.16  0.  0.
418  4.17  0.  0.
419  4.18  0.  0.
420  4.19  0.  0.
421  4.20  0.  0.
422  4.21  0.  0.
423  4.22  0.  0.
424  4.23  0.  0.
425  4.24  0.  0.
426  4.25  0.  0.
427  4.26  0.  0.
428  4.27  0.  0.
429  4.28  0.  0.
430  4.29  0.  0.
431  4.30  0.  0.
432  4.31  0.  0.
433  4.32  0.  0.
434  4.33  0.  0.
435  4.34  0.  0.
436  4.35  0.  0.
437  4.36  0.  0.
438  4.37  0.  0.
439  4.38  0.  0.
440  4.39  0.  0.
441  4.40  0.  0.
442  4.41  0.  0.
443  4.42  0.  0.
444  4.43  0.  0.
445  4.44  0.  0.
446  4.45  0.  0.
447  4.46  0.  0.
448  4.47  0.  0.
449  4.48  0.  0.
450  4.49  0.  0.
451  4.50  0.  0.
452  4.51  0.  0.
453  4.52  0.  0.
454  4.53  0.  0.
455  4.54  0.  0.
456  4.55  0.  0.
457  4.56  0.  0.
458  4.57  0.  0.
459  4.58  0.  0.
460  4.59  0.  0.
461  4.60  0.  0.
462  4.61  0.  0.
463  4.62  0.  0.
464  4.63  0.  0.
465  4.64  0.  0.
466  4.65  0.  0.
467  4.66  0.  0.
468  4.67  0.  0.
469  4.68  0.  0.
470  4.69  0.  0.
471  4.70  0.  0.
472  4.71  0.  0.
473  4.72  0.  0.
474  4.73  0.  0.
475  4.74  0.  0.
476  4.75  0.  0.
477  4.76  0.  0.
478  4.77  0.  0.
479  4.78  0.  0.
480  4.79  0.  0.
481  4.80  0.  0.
482  4.81  0.  0.
483  4.82  0.  0.
484  4.83  0.  0.
485  4.84  0.  0.
486  4.85  0.  0.
487  4.86  0.  0.
488  4.87  0.  0.
489  4.88  0.  0.
490  4.89  0.  0.
491  4.90  0.  0.
492  4.91  0.  0.
493  4.92  0.  0.
494  4.93  0.  0.
495  4.94  0.  0.
496  4.95  0.  0.
497  4.96  0.  0.
498  4.97  0.  0.
499  4.98  0.  0.
500  4.99  0.  0.
501  5.00  0.  0.
502  5.01  0.  0.
503  5.02  0.  0.
504  5.03  0.  0.
505  5.04  0.  0.
506  5.05  0.  0.
507  5.06  0.  0.
508  5.07  0.  0.
509  5.08  0.  0.
510  5.09  0.  0.
511  5.10  0.  0.
512  5.11  0.  0.
513  5.12  0.  0.
514  5.13  0.  0.
515  5.14  0.  0.
516  5.15  0.  0.
517  5.16  0.  0.
518  5.17  0.  0.
519  5.18  0.  0.
520  5.19  0.  0.
521  5.20  0.  0.
522  5.21  0.  0.
523  5.22  0.  0.
524  5.23  0.  0.
525  5.24  0.  0.
526  5.25  0.  0.
527  5.26  0.  0.
528  5.27  0.  0.
529  5.28  0.  0.
530  5.29  0.  0.
531  5.30  0.  0.
532  5.31  0.  0.
533  5.32  0.  0.
534  5.33  0.  0.
535  5.34  0.  0.
536  5.35  0.  0.
537  5.36  0.  0.
538  5.37  0.  0.
539  5.38  0.  0.
540  5.39  0.  0.
541  5.40  0.  0.
542  5.41  0.  0.
543  5.42  0.  0.
544  5.43  0.  0.
545  5.44  0.  0.
546  5.45  0.  0.
547  5.46  0.  0.
548  5.47  0.  0.
549  5.48  0.  0.
550  5.49  0.  0.
551  5.50  0.  0.
552  5.51  0.  0.
553  5.52  0.  0.
554  5.53  0.  0.
555  5.54  0.  0.
556  5.55  0.  0.
557  5.56  0.  0.
558  5.57  0.  0.
559  5.58  0.  0.
560  5.59  0.  0.
561  5.60  0.  0.
562  5.61  0.  0.
563  5.62  0.  0.
564  5.63  0.  0.
565  5.64  0.  0.
566  5.65  0.  0.
567  5.66  0.  0.
568  5.67  0.  0.
569  5.68  0.  0.
570  5.69  0.  0.
571  5.70  0.  0.
572  5.71  0.  0.
573  5.72  0.  0.
574  5.73  0.  0.
575  5.74  0.  0.
576  5.75  0.  0.
577  5.76  0.  0.
578  5.77  0.  0.
579  5.78  0.  0.
580  5.79  0.  0.
581  5.80  0.  0.
582  5.81  0.  0.
583  5.82  0.  0.
584  5.83  0.  0.
585  5.84  0.  0.
586  5.85  0.  0.
587  5.86  0.  0.
588  5.87  0.  0.
589  5.88  0.  0.
590  5.89  0.  0.
591  5.90  0.  0.
592  5.91  0.  0.
593  5.92  0.  0.
594  5.93  0.  0.
595  5.94  0.  0.
596  5.95  0.  0.
597  5.96  0.  0.
598  5.97  0.  0.
599  5.98  0.  0.
600  5.99  0.  0.
1                         6.0122811545465E+00 -6.2148469451906E-01
1  0.0000000000000E+00  3.4867954357143E-10  8.7003280691000E-09
2  1.0000000000000E-02  1.3527824087110E-03 -1.0289839626328E-03
3  2.0000000000000E-02  5.4062499334272E-03 -4.1183904024109E-03
4  3.0000000000000E-02  1.2145785733675E-02 -9.2753711777657E-03
5  4.0000000000000E-02  2.1547102421340E-02 -1.6511145256308E-02
6  5.0000000000000E-02  3.3576352383275E-02 -2.5839965592274E-02
7  6.0000000000000E-02  4.8190280851847E-02 -3.7277708511730E-02
8  7.0000000000000E-02  6.5336420369492E-02 -5.0840120466260E-02
9  8.0000000000000E-02  8.4953324944617E-02 -6.6540765716172E-02
10  9.0000000000000E-02  1.0697084187520E-01 -8.4388726293363E-02
11  1.0000000000000E-01  1.3131041892796E-01 -1.0438611230783E-01
12  1.1000000000000E-01  1.5788544430970E-01 -1.2652544615581E-01
13  1.2000000000000E-01  1.8660161665663E-01 -1.5078698834263E-01
14  1.3000000000000E-01  2.1735734210078E-01 -1.7713607535640E-01
15  1.4000000000000E-01  2.5004415535092E-01 -2.0552054125510E-01
16  1.5000000000000E-01  2.8454716165137E-01 -2.3586829432498E-01
17  1.6000000000000E-01  3.2074549645456E-01 -2.6808511832813E-01
18  1.7000000000000E-01  3.5851279966253E-01 -3.0205276450844E-01
19  1.8000000000000E-01  3.9771770135684E-01 -3.3762739572568E-01
20  1.9000000000000E-01  4.3822431604317E-01 -3.7463843792243E-01
21  2.0000000000000E-01  4.7989274258310E-01 -4.1288788671340E-01
22  2.1000000000000E-01  5.2257956716723E-01 -4.5215010836131E-01
23  2.2000000000000E-01  5.6613836689644E-01 -4.9217216493032E-01
24  2.3000000000000E-01  6.1042021177587E-01 -5.3267468317075E-01
25  2.4000000000000E-01  6.5527416318440E-01 -5.7335327588688E-01
26  2.5000000000000E-01  7.0054776715395E-01 -6.1388051338503E-01
27  2.6000000000000E-01  7.4608754107260E-01 -6.5390843131292E-01
28  2.7000000000000E-01  7.9173945270555E-01 -6.9307155000826E-01
29  2.8000000000000E-01  8.3734939070347E-01 -7.3099036959974E-01
30  2.9000000000000E-01  8.8276362603113E-01 -7.6727529476804E-01
31  3.0000000000000E-01  9.2782926399579E-01 -8.0153093348846E-01
32  3.1000000000000E-01  9.7239468677735E-01 -8.3336070544052E-01
33  3.2000000000000E-01  1.0163099865577E+00 -8.6237168826357E-01
34  3.3000000000000E-01  1.0594273895086E+00 -8.8817962362311E-01
35  3.4000000000000E-01  1.1016016710245E+00 -9.1041400026513E-01
36  3.5000000000000E-01  1.1426905626712E+00 -9.2872312798879E-01
37  3.6000000000000E-01  1.1825551513705E+00 -9.4277911483748E-01
38  3.7000000000000E-01  1.2210602713401E+00 -9.5228265984846E-01
39  3.8000000000000E-01  1.2580748892718E+00 -9.5696757542795E-01
40  3.9000000000000E-01  1.2934724831477E+00 -9.5660495681556E-01
41  4.0000000000000E-01  1.3271314149741E+00 -9.5100692112356E-01
42  4.1000000000000E-01  1.3589352975528E+00 -9.4002984500084E-01
43  4.2000000000000E-01  1.3887733552178E+00 -9.2357703796777E-01
44  4.3000000000000E-01  1.4165407782436E+00 -9.0160079775837E-01
45  4.4000000000000E-01  1.4421390703834E+00 -8.7410380442051E-01
46  4.5000000000000E-01  1.4654763887332E+00 -8.4113982127785E-01
47  4.6000000000000E-01  1.4864678748376E+00 -8.0281368293505E-01
48  4.7000000000000E-01  1.5050359756744E+00 -7.5928056308693E-01
49  4.8000000000000E-01  1.5211107528716E+00 -7.1074452773530E-01
50  4.9000000000000E-01  1.5346301782408E+00 -6.5745639227647E-01
51  5.0000000000000E-01  1.5455404134548E+00 -5.9971091355413E-01
52  5.1000000000000E-01  1.5537960714649E+00 -5.3784336012731E-01
53  5.2000000000000E-01  1.5593604570536E+00 -4.7222551544569E-01
54  5.3000000000000E-01  1.5622057837509E+00 -4.0326117912541E-01
55  5.4000000000000E-01  1.5623133642213E+00 -3.3138124086935E-01
56  5.5000000000000E-01  1.5596737711533E+00 -2.5703840958469E-01
57  5.6000000000000E-01  1.5542869656608E+00 -1.8070168675024E-01
58  5.7000000000000E-01  1.5461623902376E+00 -1.0285067794280E-01
59  5.8000000000000E-01  1.5353190233969E+00 -2.3969839532065E-02
60  5.9000000000000E-01  1.5217853932788E+00  5.5457241172546E-02
61  6.0000000000000E-01  1.5055995477167E+00  1.3495343463363E-01
62  6.1000000000000E-01  1.4868089785230E+00  2.1405343143262E-01
63  6.2000000000000E-01  1.4654704980788E+00  2.9230878733213E-01
64  6.3000000000000E-01  1.4416500666918E+00  3.6929256620687E-01
65  6.4000000000000E-01  1.4154225696129E+00  4.4460350373710E-01
66  6.5000000000000E-01  1.3868715430756E+00  5.1786962402428E-01
67  6.6000000000000E-01  1.3560888492303E+00  5.8875125191586E-01
68  6.7000000000000E-01  1.3231743003864E+00  6.5694337561508E-01
69  6.8000000000000E-01  1.2882352335362E+00  7.2217732688188E-01
70  6.9000000000000E-01  1.2513860367123E+00  7.8422175955891E-01
71  7.0000000000000E-01  1.2127476293104E+00  8.4288292102797E-01
72  7.1000000000000E-01  1.1724468990854E+00  8.9800422524148E-01
73  7.2000000000000E-01  1.1306160990918E+00  9.4946514991094E-01
74  7.3000000000000E-01  1.0873922083787E+00  9.9717949399174E-01
75  7.4000000000000E-01  1.0429162607524E+00  1.0410930445061E+00
76  7.5000000000000E-01  9.9733264638756E-01  1.0811807137390E+00
77  7.6000000000000E-01  9.5078839147550E-01  1.1174432186713E+00
78  7.7000000000000E-01  9.0343242145787E-01  1.1499033839592E+00
79  7.8000000000000E-01  8.5541481367888E-01  1.1786021576259E+00
80  7.9000000000000E-01  8.0688604550947E-01  1.2035944347274E+00
81  8.0000000000000E-01  7.5799624413715E-01  1.2249447884512E+00
82  8.1000000000000E-01  7.0889444427691E-01  1.2427232102986E+00
83  8.2000000000000E-01  6.5972786003754E-01  1.2570009611271E+00
84  8.3000000000000E-01  6.1064117707333E-01  1.2678466328532E+00
85  8.4000000000000E-01  5.6177587096307E-01  1.2753225165726E+00
86  8.5000000000000E-01  5.1326955748960E-01  1.2794813667737E+00
87  8.6000000000000E-01  4.6525538014515E-01  1.2803636433303E+00
88  8.7000000000000E-01  4.1786143976655E-01  1.2779953031668E+00
89  8.8000000000000E-01  3.7121027071460E-01  1.2723862020900E+00
90  8.9000000000000E-01  3.2541836746085E-01  1.2635291544756E+00
91  9.0000000000000E-01  2.8059576484100E-01  1.2513996845148E+00
92  9.1000000000000E-01  2.3684567458539E-01  1.2359564878469E+00
93  9.2000000000000E-01  1.9426418005433E-01  1.2171426069046E+00
94  9.3000000000000E-01  1.5293999039865E-01  1.1948873074750E+00
95  9.4000000000000E-01  1.1295425464592E-01  1.1691086281599E+00
96  9.5000000000000E-01  7.4380435490377E-02  1.1397165589084E+00
97  9.6000000000000E-01  3.7284241851971E-02  1.1066167899066E+00
98  9.7000000000000E-01  1.7236185773116E-03  1.0697149581649E+00
99  9.8000000000000E-01 -3.2251209005519E-02  1.0289213064169E+00
100  9.9000000000000E-01 -6.4597638585864E-02  9.8415565772733E-01
101  1.0000000000000E+00 -9.5280545898574E-02  9.3535259973422E-01
102  1.0100000000000E+00 -1.2427209526445E-01  8.8246676495128E-01
103  1.0200000000000E+00 -1.5155151006625E-01  8.2547808820250E-01
104  1.0300000000000E+00 -1.7710480794859E-01  7.6439691920817E-01
105  1.0400000000000E+00 -2.0092450581502E-01  6.9926886767759E-01
106  1.0500000000000E+00 -2.2300929989745E-01  6.3017926005787E-01
107  1.0600000000000E+00 -2.4336372628714E-01  5.5725709134249E-01
108  1.0700000000000E+00 -2.6199780734446E-01  4.8067836201220E-01
109  1.0800000000000E+00 -2.7892668934450E-01  4.0066869921257E-01
110  1.0900000000000E+00 -2.9417027657117E-01  3.1750517247059E-01
111  1.1000000000000E+00 -3.0775286684620E-01  2.3151722752849E-01
112  1.1100000000000E+00 -3.1970279317676E-01  1.4308667691724E-01
113  1.1200000000000E+00 -3.3005207583244E-01  5.2646702519320E-02
114  1.1300000000000E+00 -3.3883608872635E-01 -3.9320156744591E-02
115  1.1400000000000E+00 -3.4609324348485E-01 -1.3228504015132E-01
116  1.1500000000000E+00 -3.5186469405541E-01 -2.2567681193112E-01
117  1.1600000000000E+00 -3.5619406413204E-01 -3.1888708847757E-01
118  1.1700000000000E+00 -3.5912719908456E-01 -4.1127619538368E-01
119  1.1800000000000E+00 -3.6071194347052E-01 -5.0217998461128E-01
120  1.1900000000000E+00 -3.6099794460220E-01 -5.9091742393565E-01
121  1.2000000000000E+00 -3.6003648204068E-01 -6.7679885378761E-01
122  1.2100000000000E+00 -3.5788032231423E-01 -7.5913479128148E-01
123  1.2200000000000E+00 -3.5458359760936E-01 -8.3724514761941E-01
124  1.2300000000000E+00 -3.5020170667951E-01 -9.1046871376437E-01
125  1.2400000000000E+00 -3.4479123576105E-01 -9.7817276030493E-01
126  1.2500000000000E+00 -3.3840989688831E-01 -1.0397625911271E+00
127  1.2600000000000E+00 -3.3111648066930E-01 -1.0946908869885E+00
128  1.2700000000000E+00 -3.2297082032067E-01 -1.1424666744554E+00
129  1.2800000000000E+00 -3.1403376357504E-01 -1.1826637580227E+00
130  1.2900000000000E+00 -3.0436714896437E-01 -1.2149284585102E+00
131  1.3000000000000E+00 -2.9403378295268E-01 -1.2389865090948E+00
132  1.3100000000000E+00 -2.8309741443983E-01 -1.2546489713915E+00
133  1.3200000000000E+00 -2.7162270328244E-01 -1.2618170476770E+00
134  1.3300000000000E+00 -2.5967517967640E-01 -1.2604856815743E+00
135  1.3400000000000E+00 -2.4732119151239E-01 -1.2507458578948E+00
136  1.3500000000000E+00 -2.3462783714563E-01 -1.2327855326592E+00
137  1.3600000000000E+00 -2.2166288140450E-01 -1.2068891461149E+00
138  1.3700000000000E+00 -2.0849465309752E-01 -1.1734356947926E+00
139  1.3800000000000E+00 -1.9519192274654E-01 -1.1328953624480E+00
140  1.3900000000000E+00 -1.8182375977435E-01 -1.0858247341308E+00
141  1.4000000000000E+00 -1.6845936888956E-01 -1.0328606418138E+00
142  1.4100000000000E+00 -1.5516790593794E-01 -9.7471271399113E-01
143  1.4200000000000E+00 -1.4201827400859E-01 -9.1215472455237E-01
144  1.4300000000000E+00 -1.2907890108992E-01 -8.4601485795142E-01
145  1.4400000000000E+00 -1.1641750105287E-01 -7.7716502772797E-01
146  1.4500000000000E+00 -1.0410082018514E-01 -7.0650940335013E-01
147  1.4600000000000E+00 -9.2194371906015E-02 -6.3497231600999E-01
148  1.4700000000000E+00 -8.0762162642763E-02 -5.6348572686965E-01
149  1.4800000000000E+00 -6.9866412143798E-02 -4.9297645125703E-01
150  1.4900000000000E+00 -5.9567271712842E-02 -4.2435333997345E-01
151  1.5000000000000E+00 -4.9922545248698E-02 -3.5849457873592E-01
152  1.5100000000000E+00 -4.0987408653846E-02 -2.9623553001619E-01
153  1.5200000000000E+00 -3.2814170952398E-02 -2.3835654371151E-01
154  1.5300000000000E+00 -2.5452987152517E-02 -1.8552847237098E-01
155  1.5400000000000E+00 -1.8950199098638E-02 -1.3835115141448E-01
156  1.5500000000000E+00 -1.3346653725767E-02 -9.7419986907573E-02
157  1.5600000000000E+00 -8.6799706028410E-03 -6.3228950287324E-02
158  1.5700000000000E+00 -4.9841467092400E-03 -3.6168673412220E-02
159  1.5800000000000E+00 -2.2900756386020E-03 -1.6525675467080E-02
160  1.5900000000000E+00 -6.1838329839795E-04 -4.4300281061541E-03
161  1.6000000000000E+00 -1.3765100621753E-05 -9.7656183362548E-05
162  1.6100000000000E+00  2.1801497321871E-06  1.5421531722328E-05
163  1.6200000000000E+00 -1.7169025156267E-07 -1.2216159336914E-06
164  1.63 -0. -0.
165  1.64  0.  0.
166  1.65  0.  0.